#Header 
 
6912 atoms 
 
2 atom types 

0.0000000000000000e+00 4.9080000539909918e+01 xlo xhi
0.0000000000000000e+00 4.9080000539909918e+01 ylo yhi
0.0000000000000000e+00 4.9080000539909918e+01 zlo zhi

Atoms 

1 1 0 0 0
2 1 2.045 2.045 0
3 1 2.045 0 2.045
4 1 0 2.045 2.045
5 1 4.09 0 0
6 1 6.135 2.045 0
7 1 6.135 0 2.045
8 1 4.09 2.045 2.045
9 1 8.18 0 0
10 1 10.225 2.045 0
11 1 10.225 0 2.045
12 1 8.18 2.045 2.045
13 1 12.27 0 0
14 1 14.315 2.045 0
15 1 14.315 0 2.045
16 1 12.27 2.045 2.045
17 1 16.36 0 0
18 1 18.405 2.045 0
19 1 18.405 0 2.045
20 1 16.36 2.045 2.045
21 1 20.45 0 0
22 1 22.495 2.045 0
23 1 22.495 0 2.045
24 1 20.45 2.045 2.045
25 1 24.54 0 0
26 1 26.585 2.045 0
27 1 26.585 0 2.045
28 1 24.54 2.045 2.045
29 1 28.63 0 0
30 1 30.675 2.045 0
31 1 30.675 0 2.045
32 1 28.63 2.045 2.045
33 1 32.72 0 0
34 1 34.765 2.045 0
35 1 34.765 0 2.045
36 1 32.72 2.045 2.045
37 1 36.81 0 0
38 1 38.855 2.045 0
39 1 38.855 0 2.045
40 1 36.81 2.045 2.045
41 1 40.9 0 0
42 1 42.945 2.045 0
43 1 42.945 0 2.045
44 1 40.9 2.045 2.045
45 1 44.99 0 0
46 1 47.035 2.045 0
47 1 47.035 0 2.045
48 1 44.99 2.045 2.045
49 1 0 4.09 0
50 1 2.045 6.135 0
51 1 2.045 4.09 2.045
52 1 0 6.135 2.045
53 1 4.09 4.09 0
54 1 6.135 6.135 0
55 1 6.135 4.09 2.045
56 1 4.09 6.135 2.045
57 1 8.18 4.09 0
58 1 10.225 6.135 0
59 1 10.225 4.09 2.045
60 1 8.18 6.135 2.045
61 1 12.27 4.09 0
62 1 14.315 6.135 0
63 1 14.315 4.09 2.045
64 1 12.27 6.135 2.045
65 1 16.36 4.09 0
66 1 18.405 6.135 0
67 1 18.405 4.09 2.045
68 1 16.36 6.135 2.045
69 1 20.45 4.09 0
70 1 22.495 6.135 0
71 1 22.495 4.09 2.045
72 1 20.45 6.135 2.045
73 1 24.54 4.09 0
74 1 26.585 6.135 0
75 1 26.585 4.09 2.045
76 1 24.54 6.135 2.045
77 1 28.63 4.09 0
78 1 30.675 6.135 0
79 1 30.675 4.09 2.045
80 1 28.63 6.135 2.045
81 1 32.72 4.09 0
82 1 34.765 6.135 0
83 1 34.765 4.09 2.045
84 1 32.72 6.135 2.045
85 1 36.81 4.09 0
86 1 38.855 6.135 0
87 1 38.855 4.09 2.045
88 1 36.81 6.135 2.045
89 1 40.9 4.09 0
90 1 42.945 6.135 0
91 1 42.945 4.09 2.045
92 1 40.9 6.135 2.045
93 1 44.99 4.09 0
94 1 47.035 6.135 0
95 1 47.035 4.09 2.045
96 1 44.99 6.135 2.045
97 1 0 8.18 0
98 1 2.045 10.225 0
99 1 2.045 8.18 2.045
100 1 0 10.225 2.045
101 1 4.09 8.18 0
102 1 6.135 10.225 0
103 1 6.135 8.18 2.045
104 1 4.09 10.225 2.045
105 1 8.18 8.18 0
106 1 10.225 10.225 0
107 1 10.225 8.18 2.045
108 1 8.18 10.225 2.045
109 1 12.27 8.18 0
110 1 14.315 10.225 0
111 1 14.315 8.18 2.045
112 1 12.27 10.225 2.045
113 1 16.36 8.18 0
114 1 18.405 10.225 0
115 1 18.405 8.18 2.045
116 1 16.36 10.225 2.045
117 1 20.45 8.18 0
118 1 22.495 10.225 0
119 1 22.495 8.18 2.045
120 1 20.45 10.225 2.045
121 1 24.54 8.18 0
122 1 26.585 10.225 0
123 1 26.585 8.18 2.045
124 1 24.54 10.225 2.045
125 1 28.63 8.18 0
126 1 30.675 10.225 0
127 1 30.675 8.18 2.045
128 1 28.63 10.225 2.045
129 1 32.72 8.18 0
130 1 34.765 10.225 0
131 1 34.765 8.18 2.045
132 1 32.72 10.225 2.045
133 1 36.81 8.18 0
134 1 38.855 10.225 0
135 1 38.855 8.18 2.045
136 1 36.81 10.225 2.045
137 1 40.9 8.18 0
138 1 42.945 10.225 0
139 1 42.945 8.18 2.045
140 1 40.9 10.225 2.045
141 1 44.99 8.18 0
142 1 47.035 10.225 0
143 1 47.035 8.18 2.045
144 1 44.99 10.225 2.045
145 1 0 12.27 0
146 1 2.045 14.315 0
147 1 2.045 12.27 2.045
148 1 0 14.315 2.045
149 1 4.09 12.27 0
150 1 6.135 14.315 0
151 1 6.135 12.27 2.045
152 1 4.09 14.315 2.045
153 1 8.18 12.27 0
154 1 10.225 14.315 0
155 1 10.225 12.27 2.045
156 1 8.18 14.315 2.045
157 1 12.27 12.27 0
158 1 14.315 14.315 0
159 1 14.315 12.27 2.045
160 1 12.27 14.315 2.045
161 1 16.36 12.27 0
162 1 18.405 14.315 0
163 1 18.405 12.27 2.045
164 1 16.36 14.315 2.045
165 1 20.45 12.27 0
166 1 22.495 14.315 0
167 1 22.495 12.27 2.045
168 1 20.45 14.315 2.045
169 1 24.54 12.27 0
170 1 26.585 14.315 0
171 1 26.585 12.27 2.045
172 1 24.54 14.315 2.045
173 1 28.63 12.27 0
174 1 30.675 14.315 0
175 1 30.675 12.27 2.045
176 1 28.63 14.315 2.045
177 1 32.72 12.27 0
178 1 34.765 14.315 0
179 1 34.765 12.27 2.045
180 1 32.72 14.315 2.045
181 1 36.81 12.27 0
182 1 38.855 14.315 0
183 1 38.855 12.27 2.045
184 1 36.81 14.315 2.045
185 1 40.9 12.27 0
186 1 42.945 14.315 0
187 1 42.945 12.27 2.045
188 1 40.9 14.315 2.045
189 1 44.99 12.27 0
190 1 47.035 14.315 0
191 1 47.035 12.27 2.045
192 1 44.99 14.315 2.045
193 1 0 16.36 0
194 1 2.045 18.405 0
195 1 2.045 16.36 2.045
196 1 0 18.405 2.045
197 1 4.09 16.36 0
198 1 6.135 18.405 0
199 1 6.135 16.36 2.045
200 1 4.09 18.405 2.045
201 1 8.18 16.36 0
202 1 10.225 18.405 0
203 1 10.225 16.36 2.045
204 1 8.18 18.405 2.045
205 1 12.27 16.36 0
206 1 14.315 18.405 0
207 1 14.315 16.36 2.045
208 1 12.27 18.405 2.045
209 1 16.36 16.36 0
210 1 18.405 18.405 0
211 1 18.405 16.36 2.045
212 1 16.36 18.405 2.045
213 1 20.45 16.36 0
214 1 22.495 18.405 0
215 1 22.495 16.36 2.045
216 1 20.45 18.405 2.045
217 1 24.54 16.36 0
218 1 26.585 18.405 0
219 1 26.585 16.36 2.045
220 1 24.54 18.405 2.045
221 1 28.63 16.36 0
222 1 30.675 18.405 0
223 1 30.675 16.36 2.045
224 1 28.63 18.405 2.045
225 1 32.72 16.36 0
226 1 34.765 18.405 0
227 1 34.765 16.36 2.045
228 1 32.72 18.405 2.045
229 1 36.81 16.36 0
230 1 38.855 18.405 0
231 1 38.855 16.36 2.045
232 1 36.81 18.405 2.045
233 1 40.9 16.36 0
234 1 42.945 18.405 0
235 1 42.945 16.36 2.045
236 1 40.9 18.405 2.045
237 1 44.99 16.36 0
238 1 47.035 18.405 0
239 1 47.035 16.36 2.045
240 1 44.99 18.405 2.045
241 1 0 20.45 0
242 1 2.045 22.495 0
243 1 2.045 20.45 2.045
244 1 0 22.495 2.045
245 1 4.09 20.45 0
246 1 6.135 22.495 0
247 1 6.135 20.45 2.045
248 1 4.09 22.495 2.045
249 1 8.18 20.45 0
250 1 10.225 22.495 0
251 1 10.225 20.45 2.045
252 1 8.18 22.495 2.045
253 1 12.27 20.45 0
254 1 14.315 22.495 0
255 1 14.315 20.45 2.045
256 1 12.27 22.495 2.045
257 1 16.36 20.45 0
258 1 18.405 22.495 0
259 1 18.405 20.45 2.045
260 1 16.36 22.495 2.045
261 1 20.45 20.45 0
262 1 22.495 22.495 0
263 1 22.495 20.45 2.045
264 1 20.45 22.495 2.045
265 1 24.54 20.45 0
266 1 26.585 22.495 0
267 1 26.585 20.45 2.045
268 1 24.54 22.495 2.045
269 1 28.63 20.45 0
270 1 30.675 22.495 0
271 1 30.675 20.45 2.045
272 1 28.63 22.495 2.045
273 1 32.72 20.45 0
274 1 34.765 22.495 0
275 1 34.765 20.45 2.045
276 1 32.72 22.495 2.045
277 1 36.81 20.45 0
278 1 38.855 22.495 0
279 1 38.855 20.45 2.045
280 1 36.81 22.495 2.045
281 1 40.9 20.45 0
282 1 42.945 22.495 0
283 1 42.945 20.45 2.045
284 1 40.9 22.495 2.045
285 1 44.99 20.45 0
286 1 47.035 22.495 0
287 1 47.035 20.45 2.045
288 1 44.99 22.495 2.045
289 1 0 24.54 0
290 1 2.045 26.585 0
291 1 2.045 24.54 2.045
292 1 0 26.585 2.045
293 1 4.09 24.54 0
294 1 6.135 26.585 0
295 1 6.135 24.54 2.045
296 1 4.09 26.585 2.045
297 1 8.18 24.54 0
298 1 10.225 26.585 0
299 1 10.225 24.54 2.045
300 1 8.18 26.585 2.045
301 1 12.27 24.54 0
302 1 14.315 26.585 0
303 1 14.315 24.54 2.045
304 1 12.27 26.585 2.045
305 1 16.36 24.54 0
306 1 18.405 26.585 0
307 1 18.405 24.54 2.045
308 1 16.36 26.585 2.045
309 1 20.45 24.54 0
310 1 22.495 26.585 0
311 1 22.495 24.54 2.045
312 1 20.45 26.585 2.045
313 1 24.54 24.54 0
314 1 26.585 26.585 0
315 1 26.585 24.54 2.045
316 1 24.54 26.585 2.045
317 1 28.63 24.54 0
318 1 30.675 26.585 0
319 1 30.675 24.54 2.045
320 1 28.63 26.585 2.045
321 1 32.72 24.54 0
322 1 34.765 26.585 0
323 1 34.765 24.54 2.045
324 1 32.72 26.585 2.045
325 1 36.81 24.54 0
326 1 38.855 26.585 0
327 1 38.855 24.54 2.045
328 1 36.81 26.585 2.045
329 1 40.9 24.54 0
330 1 42.945 26.585 0
331 1 42.945 24.54 2.045
332 1 40.9 26.585 2.045
333 1 44.99 24.54 0
334 1 47.035 26.585 0
335 1 47.035 24.54 2.045
336 1 44.99 26.585 2.045
337 1 0 28.63 0
338 1 2.045 30.675 0
339 1 2.045 28.63 2.045
340 1 0 30.675 2.045
341 1 4.09 28.63 0
342 1 6.135 30.675 0
343 1 6.135 28.63 2.045
344 1 4.09 30.675 2.045
345 1 8.18 28.63 0
346 1 10.225 30.675 0
347 1 10.225 28.63 2.045
348 1 8.18 30.675 2.045
349 1 12.27 28.63 0
350 1 14.315 30.675 0
351 1 14.315 28.63 2.045
352 1 12.27 30.675 2.045
353 1 16.36 28.63 0
354 1 18.405 30.675 0
355 1 18.405 28.63 2.045
356 1 16.36 30.675 2.045
357 1 20.45 28.63 0
358 1 22.495 30.675 0
359 1 22.495 28.63 2.045
360 1 20.45 30.675 2.045
361 1 24.54 28.63 0
362 1 26.585 30.675 0
363 1 26.585 28.63 2.045
364 1 24.54 30.675 2.045
365 1 28.63 28.63 0
366 1 30.675 30.675 0
367 1 30.675 28.63 2.045
368 1 28.63 30.675 2.045
369 1 32.72 28.63 0
370 1 34.765 30.675 0
371 1 34.765 28.63 2.045
372 1 32.72 30.675 2.045
373 1 36.81 28.63 0
374 1 38.855 30.675 0
375 1 38.855 28.63 2.045
376 1 36.81 30.675 2.045
377 1 40.9 28.63 0
378 1 42.945 30.675 0
379 1 42.945 28.63 2.045
380 1 40.9 30.675 2.045
381 1 44.99 28.63 0
382 1 47.035 30.675 0
383 1 47.035 28.63 2.045
384 1 44.99 30.675 2.045
385 1 0 32.72 0
386 1 2.045 34.765 0
387 1 2.045 32.72 2.045
388 1 0 34.765 2.045
389 1 4.09 32.72 0
390 1 6.135 34.765 0
391 1 6.135 32.72 2.045
392 1 4.09 34.765 2.045
393 1 8.18 32.72 0
394 1 10.225 34.765 0
395 1 10.225 32.72 2.045
396 1 8.18 34.765 2.045
397 1 12.27 32.72 0
398 1 14.315 34.765 0
399 1 14.315 32.72 2.045
400 1 12.27 34.765 2.045
401 1 16.36 32.72 0
402 1 18.405 34.765 0
403 1 18.405 32.72 2.045
404 1 16.36 34.765 2.045
405 1 20.45 32.72 0
406 1 22.495 34.765 0
407 1 22.495 32.72 2.045
408 1 20.45 34.765 2.045
409 1 24.54 32.72 0
410 1 26.585 34.765 0
411 1 26.585 32.72 2.045
412 1 24.54 34.765 2.045
413 1 28.63 32.72 0
414 1 30.675 34.765 0
415 1 30.675 32.72 2.045
416 1 28.63 34.765 2.045
417 1 32.72 32.72 0
418 1 34.765 34.765 0
419 1 34.765 32.72 2.045
420 1 32.72 34.765 2.045
421 1 36.81 32.72 0
422 1 38.855 34.765 0
423 1 38.855 32.72 2.045
424 1 36.81 34.765 2.045
425 1 40.9 32.72 0
426 1 42.945 34.765 0
427 1 42.945 32.72 2.045
428 1 40.9 34.765 2.045
429 1 44.99 32.72 0
430 1 47.035 34.765 0
431 1 47.035 32.72 2.045
432 1 44.99 34.765 2.045
433 1 0 36.81 0
434 1 2.045 38.855 0
435 1 2.045 36.81 2.045
436 1 0 38.855 2.045
437 1 4.09 36.81 0
438 1 6.135 38.855 0
439 1 6.135 36.81 2.045
440 1 4.09 38.855 2.045
441 1 8.18 36.81 0
442 1 10.225 38.855 0
443 1 10.225 36.81 2.045
444 1 8.18 38.855 2.045
445 1 12.27 36.81 0
446 1 14.315 38.855 0
447 1 14.315 36.81 2.045
448 1 12.27 38.855 2.045
449 1 16.36 36.81 0
450 1 18.405 38.855 0
451 1 18.405 36.81 2.045
452 1 16.36 38.855 2.045
453 1 20.45 36.81 0
454 1 22.495 38.855 0
455 1 22.495 36.81 2.045
456 1 20.45 38.855 2.045
457 1 24.54 36.81 0
458 1 26.585 38.855 0
459 1 26.585 36.81 2.045
460 1 24.54 38.855 2.045
461 1 28.63 36.81 0
462 1 30.675 38.855 0
463 1 30.675 36.81 2.045
464 1 28.63 38.855 2.045
465 1 32.72 36.81 0
466 1 34.765 38.855 0
467 1 34.765 36.81 2.045
468 1 32.72 38.855 2.045
469 1 36.81 36.81 0
470 1 38.855 38.855 0
471 1 38.855 36.81 2.045
472 1 36.81 38.855 2.045
473 1 40.9 36.81 0
474 1 42.945 38.855 0
475 1 42.945 36.81 2.045
476 1 40.9 38.855 2.045
477 1 44.99 36.81 0
478 1 47.035 38.855 0
479 1 47.035 36.81 2.045
480 1 44.99 38.855 2.045
481 1 0 40.9 0
482 1 2.045 42.945 0
483 1 2.045 40.9 2.045
484 1 0 42.945 2.045
485 1 4.09 40.9 0
486 1 6.135 42.945 0
487 1 6.135 40.9 2.045
488 1 4.09 42.945 2.045
489 1 8.18 40.9 0
490 1 10.225 42.945 0
491 1 10.225 40.9 2.045
492 1 8.18 42.945 2.045
493 1 12.27 40.9 0
494 1 14.315 42.945 0
495 1 14.315 40.9 2.045
496 1 12.27 42.945 2.045
497 1 16.36 40.9 0
498 1 18.405 42.945 0
499 1 18.405 40.9 2.045
500 1 16.36 42.945 2.045
501 1 20.45 40.9 0
502 1 22.495 42.945 0
503 1 22.495 40.9 2.045
504 1 20.45 42.945 2.045
505 1 24.54 40.9 0
506 1 26.585 42.945 0
507 1 26.585 40.9 2.045
508 1 24.54 42.945 2.045
509 1 28.63 40.9 0
510 1 30.675 42.945 0
511 1 30.675 40.9 2.045
512 1 28.63 42.945 2.045
513 1 32.72 40.9 0
514 1 34.765 42.945 0
515 1 34.765 40.9 2.045
516 1 32.72 42.945 2.045
517 1 36.81 40.9 0
518 1 38.855 42.945 0
519 1 38.855 40.9 2.045
520 1 36.81 42.945 2.045
521 1 40.9 40.9 0
522 1 42.945 42.945 0
523 1 42.945 40.9 2.045
524 1 40.9 42.945 2.045
525 1 44.99 40.9 0
526 1 47.035 42.945 0
527 1 47.035 40.9 2.045
528 1 44.99 42.945 2.045
529 1 0 44.99 0
530 1 2.045 47.035 0
531 1 2.045 44.99 2.045
532 1 0 47.035 2.045
533 1 4.09 44.99 0
534 1 6.135 47.035 0
535 1 6.135 44.99 2.045
536 1 4.09 47.035 2.045
537 1 8.18 44.99 0
538 1 10.225 47.035 0
539 1 10.225 44.99 2.045
540 1 8.18 47.035 2.045
541 1 12.27 44.99 0
542 1 14.315 47.035 0
543 1 14.315 44.99 2.045
544 1 12.27 47.035 2.045
545 1 16.36 44.99 0
546 1 18.405 47.035 0
547 1 18.405 44.99 2.045
548 1 16.36 47.035 2.045
549 1 20.45 44.99 0
550 1 22.495 47.035 0
551 1 22.495 44.99 2.045
552 1 20.45 47.035 2.045
553 1 24.54 44.99 0
554 1 26.585 47.035 0
555 1 26.585 44.99 2.045
556 1 24.54 47.035 2.045
557 1 28.63 44.99 0
558 1 30.675 47.035 0
559 1 30.675 44.99 2.045
560 1 28.63 47.035 2.045
561 1 32.72 44.99 0
562 1 34.765 47.035 0
563 1 34.765 44.99 2.045
564 1 32.72 47.035 2.045
565 1 36.81 44.99 0
566 1 38.855 47.035 0
567 1 38.855 44.99 2.045
568 1 36.81 47.035 2.045
569 1 40.9 44.99 0
570 1 42.945 47.035 0
571 1 42.945 44.99 2.045
572 1 40.9 47.035 2.045
573 1 44.99 44.99 0
574 1 47.035 47.035 0
575 1 47.035 44.99 2.045
576 1 44.99 47.035 2.045
577 1 0 0 4.09
578 1 2.045 2.045 4.09
579 1 2.045 0 6.135
580 1 0 2.045 6.135
581 1 4.09 0 4.09
582 1 6.135 2.045 4.09
583 1 6.135 0 6.135
584 1 4.09 2.045 6.135
585 1 8.18 0 4.09
586 1 10.225 2.045 4.09
587 1 10.225 0 6.135
588 1 8.18 2.045 6.135
589 1 12.27 0 4.09
590 1 14.315 2.045 4.09
591 1 14.315 0 6.135
592 1 12.27 2.045 6.135
593 1 16.36 0 4.09
594 1 18.405 2.045 4.09
595 1 18.405 0 6.135
596 1 16.36 2.045 6.135
597 1 20.45 0 4.09
598 1 22.495 2.045 4.09
599 1 22.495 0 6.135
600 1 20.45 2.045 6.135
601 1 24.54 0 4.09
602 1 26.585 2.045 4.09
603 1 26.585 0 6.135
604 1 24.54 2.045 6.135
605 1 28.63 0 4.09
606 1 30.675 2.045 4.09
607 1 30.675 0 6.135
608 1 28.63 2.045 6.135
609 1 32.72 0 4.09
610 1 34.765 2.045 4.09
611 1 34.765 0 6.135
612 1 32.72 2.045 6.135
613 1 36.81 0 4.09
614 1 38.855 2.045 4.09
615 1 38.855 0 6.135
616 1 36.81 2.045 6.135
617 1 40.9 0 4.09
618 1 42.945 2.045 4.09
619 1 42.945 0 6.135
620 1 40.9 2.045 6.135
621 1 44.99 0 4.09
622 1 47.035 2.045 4.09
623 1 47.035 0 6.135
624 1 44.99 2.045 6.135
625 1 0 4.09 4.09
626 1 2.045 6.135 4.09
627 1 2.045 4.09 6.135
628 1 0 6.135 6.135
629 1 4.09 4.09 4.09
630 1 6.135 6.135 4.09
631 1 6.135 4.09 6.135
632 1 4.09 6.135 6.135
633 1 8.18 4.09 4.09
634 1 10.225 6.135 4.09
635 1 10.225 4.09 6.135
636 1 8.18 6.135 6.135
637 1 12.27 4.09 4.09
638 1 14.315 6.135 4.09
639 1 14.315 4.09 6.135
640 1 12.27 6.135 6.135
641 1 16.36 4.09 4.09
642 1 18.405 6.135 4.09
643 1 18.405 4.09 6.135
644 1 16.36 6.135 6.135
645 1 20.45 4.09 4.09
646 1 22.495 6.135 4.09
647 1 22.495 4.09 6.135
648 1 20.45 6.135 6.135
649 1 24.54 4.09 4.09
650 1 26.585 6.135 4.09
651 1 26.585 4.09 6.135
652 1 24.54 6.135 6.135
653 1 28.63 4.09 4.09
654 1 30.675 6.135 4.09
655 1 30.675 4.09 6.135
656 1 28.63 6.135 6.135
657 1 32.72 4.09 4.09
658 1 34.765 6.135 4.09
659 1 34.765 4.09 6.135
660 1 32.72 6.135 6.135
661 1 36.81 4.09 4.09
662 1 38.855 6.135 4.09
663 1 38.855 4.09 6.135
664 1 36.81 6.135 6.135
665 1 40.9 4.09 4.09
666 1 42.945 6.135 4.09
667 1 42.945 4.09 6.135
668 1 40.9 6.135 6.135
669 1 44.99 4.09 4.09
670 1 47.035 6.135 4.09
671 1 47.035 4.09 6.135
672 1 44.99 6.135 6.135
673 1 0 8.18 4.09
674 1 2.045 10.225 4.09
675 1 2.045 8.18 6.135
676 1 0 10.225 6.135
677 1 4.09 8.18 4.09
678 1 6.135 10.225 4.09
679 1 6.135 8.18 6.135
680 1 4.09 10.225 6.135
681 1 8.18 8.18 4.09
682 1 10.225 10.225 4.09
683 1 10.225 8.18 6.135
684 1 8.18 10.225 6.135
685 1 12.27 8.18 4.09
686 1 14.315 10.225 4.09
687 1 14.315 8.18 6.135
688 1 12.27 10.225 6.135
689 1 16.36 8.18 4.09
690 1 18.405 10.225 4.09
691 1 18.405 8.18 6.135
692 1 16.36 10.225 6.135
693 1 20.45 8.18 4.09
694 1 22.495 10.225 4.09
695 1 22.495 8.18 6.135
696 1 20.45 10.225 6.135
697 1 24.54 8.18 4.09
698 1 26.585 10.225 4.09
699 1 26.585 8.18 6.135
700 1 24.54 10.225 6.135
701 1 28.63 8.18 4.09
702 1 30.675 10.225 4.09
703 1 30.675 8.18 6.135
704 1 28.63 10.225 6.135
705 1 32.72 8.18 4.09
706 1 34.765 10.225 4.09
707 1 34.765 8.18 6.135
708 1 32.72 10.225 6.135
709 1 36.81 8.18 4.09
710 1 38.855 10.225 4.09
711 1 38.855 8.18 6.135
712 1 36.81 10.225 6.135
713 1 40.9 8.18 4.09
714 1 42.945 10.225 4.09
715 1 42.945 8.18 6.135
716 1 40.9 10.225 6.135
717 1 44.99 8.18 4.09
718 1 47.035 10.225 4.09
719 1 47.035 8.18 6.135
720 1 44.99 10.225 6.135
721 1 0 12.27 4.09
722 1 2.045 14.315 4.09
723 1 2.045 12.27 6.135
724 1 0 14.315 6.135
725 1 4.09 12.27 4.09
726 1 6.135 14.315 4.09
727 1 6.135 12.27 6.135
728 1 4.09 14.315 6.135
729 1 8.18 12.27 4.09
730 1 10.225 14.315 4.09
731 1 10.225 12.27 6.135
732 1 8.18 14.315 6.135
733 1 12.27 12.27 4.09
734 1 14.315 14.315 4.09
735 1 14.315 12.27 6.135
736 1 12.27 14.315 6.135
737 1 16.36 12.27 4.09
738 1 18.405 14.315 4.09
739 1 18.405 12.27 6.135
740 1 16.36 14.315 6.135
741 1 20.45 12.27 4.09
742 1 22.495 14.315 4.09
743 1 22.495 12.27 6.135
744 1 20.45 14.315 6.135
745 1 24.54 12.27 4.09
746 1 26.585 14.315 4.09
747 1 26.585 12.27 6.135
748 1 24.54 14.315 6.135
749 1 28.63 12.27 4.09
750 1 30.675 14.315 4.09
751 1 30.675 12.27 6.135
752 1 28.63 14.315 6.135
753 1 32.72 12.27 4.09
754 1 34.765 14.315 4.09
755 1 34.765 12.27 6.135
756 1 32.72 14.315 6.135
757 1 36.81 12.27 4.09
758 1 38.855 14.315 4.09
759 1 38.855 12.27 6.135
760 1 36.81 14.315 6.135
761 1 40.9 12.27 4.09
762 1 42.945 14.315 4.09
763 1 42.945 12.27 6.135
764 1 40.9 14.315 6.135
765 1 44.99 12.27 4.09
766 1 47.035 14.315 4.09
767 1 47.035 12.27 6.135
768 1 44.99 14.315 6.135
769 1 0 16.36 4.09
770 1 2.045 18.405 4.09
771 1 2.045 16.36 6.135
772 1 0 18.405 6.135
773 1 4.09 16.36 4.09
774 1 6.135 18.405 4.09
775 1 6.135 16.36 6.135
776 1 4.09 18.405 6.135
777 1 8.18 16.36 4.09
778 1 10.225 18.405 4.09
779 1 10.225 16.36 6.135
780 1 8.18 18.405 6.135
781 1 12.27 16.36 4.09
782 1 14.315 18.405 4.09
783 1 14.315 16.36 6.135
784 1 12.27 18.405 6.135
785 1 16.36 16.36 4.09
786 1 18.405 18.405 4.09
787 1 18.405 16.36 6.135
788 1 16.36 18.405 6.135
789 1 20.45 16.36 4.09
790 1 22.495 18.405 4.09
791 1 22.495 16.36 6.135
792 1 20.45 18.405 6.135
793 1 24.54 16.36 4.09
794 1 26.585 18.405 4.09
795 1 26.585 16.36 6.135
796 1 24.54 18.405 6.135
797 1 28.63 16.36 4.09
798 1 30.675 18.405 4.09
799 1 30.675 16.36 6.135
800 1 28.63 18.405 6.135
801 1 32.72 16.36 4.09
802 1 34.765 18.405 4.09
803 1 34.765 16.36 6.135
804 1 32.72 18.405 6.135
805 1 36.81 16.36 4.09
806 1 38.855 18.405 4.09
807 1 38.855 16.36 6.135
808 1 36.81 18.405 6.135
809 1 40.9 16.36 4.09
810 1 42.945 18.405 4.09
811 1 42.945 16.36 6.135
812 1 40.9 18.405 6.135
813 1 44.99 16.36 4.09
814 1 47.035 18.405 4.09
815 1 47.035 16.36 6.135
816 1 44.99 18.405 6.135
817 1 0 20.45 4.09
818 1 2.045 22.495 4.09
819 1 2.045 20.45 6.135
820 1 0 22.495 6.135
821 1 4.09 20.45 4.09
822 1 6.135 22.495 4.09
823 1 6.135 20.45 6.135
824 1 4.09 22.495 6.135
825 1 8.18 20.45 4.09
826 1 10.225 22.495 4.09
827 1 10.225 20.45 6.135
828 1 8.18 22.495 6.135
829 1 12.27 20.45 4.09
830 1 14.315 22.495 4.09
831 1 14.315 20.45 6.135
832 1 12.27 22.495 6.135
833 1 16.36 20.45 4.09
834 1 18.405 22.495 4.09
835 1 18.405 20.45 6.135
836 1 16.36 22.495 6.135
837 1 20.45 20.45 4.09
838 1 22.495 22.495 4.09
839 1 22.495 20.45 6.135
840 1 20.45 22.495 6.135
841 1 24.54 20.45 4.09
842 1 26.585 22.495 4.09
843 1 26.585 20.45 6.135
844 1 24.54 22.495 6.135
845 1 28.63 20.45 4.09
846 1 30.675 22.495 4.09
847 1 30.675 20.45 6.135
848 1 28.63 22.495 6.135
849 1 32.72 20.45 4.09
850 1 34.765 22.495 4.09
851 1 34.765 20.45 6.135
852 1 32.72 22.495 6.135
853 1 36.81 20.45 4.09
854 1 38.855 22.495 4.09
855 1 38.855 20.45 6.135
856 1 36.81 22.495 6.135
857 1 40.9 20.45 4.09
858 1 42.945 22.495 4.09
859 1 42.945 20.45 6.135
860 1 40.9 22.495 6.135
861 1 44.99 20.45 4.09
862 1 47.035 22.495 4.09
863 1 47.035 20.45 6.135
864 1 44.99 22.495 6.135
865 1 0 24.54 4.09
866 1 2.045 26.585 4.09
867 1 2.045 24.54 6.135
868 1 0 26.585 6.135
869 1 4.09 24.54 4.09
870 1 6.135 26.585 4.09
871 1 6.135 24.54 6.135
872 1 4.09 26.585 6.135
873 1 8.18 24.54 4.09
874 1 10.225 26.585 4.09
875 1 10.225 24.54 6.135
876 1 8.18 26.585 6.135
877 1 12.27 24.54 4.09
878 1 14.315 26.585 4.09
879 1 14.315 24.54 6.135
880 1 12.27 26.585 6.135
881 1 16.36 24.54 4.09
882 1 18.405 26.585 4.09
883 1 18.405 24.54 6.135
884 1 16.36 26.585 6.135
885 1 20.45 24.54 4.09
886 1 22.495 26.585 4.09
887 1 22.495 24.54 6.135
888 1 20.45 26.585 6.135
889 1 24.54 24.54 4.09
890 1 26.585 26.585 4.09
891 1 26.585 24.54 6.135
892 1 24.54 26.585 6.135
893 1 28.63 24.54 4.09
894 1 30.675 26.585 4.09
895 1 30.675 24.54 6.135
896 1 28.63 26.585 6.135
897 1 32.72 24.54 4.09
898 1 34.765 26.585 4.09
899 1 34.765 24.54 6.135
900 1 32.72 26.585 6.135
901 1 36.81 24.54 4.09
902 1 38.855 26.585 4.09
903 1 38.855 24.54 6.135
904 1 36.81 26.585 6.135
905 1 40.9 24.54 4.09
906 1 42.945 26.585 4.09
907 1 42.945 24.54 6.135
908 1 40.9 26.585 6.135
909 1 44.99 24.54 4.09
910 1 47.035 26.585 4.09
911 1 47.035 24.54 6.135
912 1 44.99 26.585 6.135
913 1 0 28.63 4.09
914 1 2.045 30.675 4.09
915 1 2.045 28.63 6.135
916 1 0 30.675 6.135
917 1 4.09 28.63 4.09
918 1 6.135 30.675 4.09
919 1 6.135 28.63 6.135
920 1 4.09 30.675 6.135
921 1 8.18 28.63 4.09
922 1 10.225 30.675 4.09
923 1 10.225 28.63 6.135
924 1 8.18 30.675 6.135
925 1 12.27 28.63 4.09
926 1 14.315 30.675 4.09
927 1 14.315 28.63 6.135
928 1 12.27 30.675 6.135
929 1 16.36 28.63 4.09
930 1 18.405 30.675 4.09
931 1 18.405 28.63 6.135
932 1 16.36 30.675 6.135
933 1 20.45 28.63 4.09
934 1 22.495 30.675 4.09
935 1 22.495 28.63 6.135
936 1 20.45 30.675 6.135
937 1 24.54 28.63 4.09
938 1 26.585 30.675 4.09
939 1 26.585 28.63 6.135
940 1 24.54 30.675 6.135
941 1 28.63 28.63 4.09
942 1 30.675 30.675 4.09
943 1 30.675 28.63 6.135
944 1 28.63 30.675 6.135
945 1 32.72 28.63 4.09
946 1 34.765 30.675 4.09
947 1 34.765 28.63 6.135
948 1 32.72 30.675 6.135
949 1 36.81 28.63 4.09
950 1 38.855 30.675 4.09
951 1 38.855 28.63 6.135
952 1 36.81 30.675 6.135
953 1 40.9 28.63 4.09
954 1 42.945 30.675 4.09
955 1 42.945 28.63 6.135
956 1 40.9 30.675 6.135
957 1 44.99 28.63 4.09
958 1 47.035 30.675 4.09
959 1 47.035 28.63 6.135
960 1 44.99 30.675 6.135
961 1 0 32.72 4.09
962 1 2.045 34.765 4.09
963 1 2.045 32.72 6.135
964 1 0 34.765 6.135
965 1 4.09 32.72 4.09
966 1 6.135 34.765 4.09
967 1 6.135 32.72 6.135
968 1 4.09 34.765 6.135
969 1 8.18 32.72 4.09
970 1 10.225 34.765 4.09
971 1 10.225 32.72 6.135
972 1 8.18 34.765 6.135
973 1 12.27 32.72 4.09
974 1 14.315 34.765 4.09
975 1 14.315 32.72 6.135
976 1 12.27 34.765 6.135
977 1 16.36 32.72 4.09
978 1 18.405 34.765 4.09
979 1 18.405 32.72 6.135
980 1 16.36 34.765 6.135
981 1 20.45 32.72 4.09
982 1 22.495 34.765 4.09
983 1 22.495 32.72 6.135
984 1 20.45 34.765 6.135
985 1 24.54 32.72 4.09
986 1 26.585 34.765 4.09
987 1 26.585 32.72 6.135
988 1 24.54 34.765 6.135
989 1 28.63 32.72 4.09
990 1 30.675 34.765 4.09
991 1 30.675 32.72 6.135
992 1 28.63 34.765 6.135
993 1 32.72 32.72 4.09
994 1 34.765 34.765 4.09
995 1 34.765 32.72 6.135
996 1 32.72 34.765 6.135
997 1 36.81 32.72 4.09
998 1 38.855 34.765 4.09
999 1 38.855 32.72 6.135
1000 1 36.81 34.765 6.135
1001 1 40.9 32.72 4.09
1002 1 42.945 34.765 4.09
1003 1 42.945 32.72 6.135
1004 1 40.9 34.765 6.135
1005 1 44.99 32.72 4.09
1006 1 47.035 34.765 4.09
1007 1 47.035 32.72 6.135
1008 1 44.99 34.765 6.135
1009 1 0 36.81 4.09
1010 1 2.045 38.855 4.09
1011 1 2.045 36.81 6.135
1012 1 0 38.855 6.135
1013 1 4.09 36.81 4.09
1014 1 6.135 38.855 4.09
1015 1 6.135 36.81 6.135
1016 1 4.09 38.855 6.135
1017 1 8.18 36.81 4.09
1018 1 10.225 38.855 4.09
1019 1 10.225 36.81 6.135
1020 1 8.18 38.855 6.135
1021 1 12.27 36.81 4.09
1022 1 14.315 38.855 4.09
1023 1 14.315 36.81 6.135
1024 1 12.27 38.855 6.135
1025 1 16.36 36.81 4.09
1026 1 18.405 38.855 4.09
1027 1 18.405 36.81 6.135
1028 1 16.36 38.855 6.135
1029 1 20.45 36.81 4.09
1030 1 22.495 38.855 4.09
1031 1 22.495 36.81 6.135
1032 1 20.45 38.855 6.135
1033 1 24.54 36.81 4.09
1034 1 26.585 38.855 4.09
1035 1 26.585 36.81 6.135
1036 1 24.54 38.855 6.135
1037 1 28.63 36.81 4.09
1038 1 30.675 38.855 4.09
1039 1 30.675 36.81 6.135
1040 1 28.63 38.855 6.135
1041 1 32.72 36.81 4.09
1042 1 34.765 38.855 4.09
1043 1 34.765 36.81 6.135
1044 1 32.72 38.855 6.135
1045 1 36.81 36.81 4.09
1046 1 38.855 38.855 4.09
1047 1 38.855 36.81 6.135
1048 1 36.81 38.855 6.135
1049 1 40.9 36.81 4.09
1050 1 42.945 38.855 4.09
1051 1 42.945 36.81 6.135
1052 1 40.9 38.855 6.135
1053 1 44.99 36.81 4.09
1054 1 47.035 38.855 4.09
1055 1 47.035 36.81 6.135
1056 1 44.99 38.855 6.135
1057 1 0 40.9 4.09
1058 1 2.045 42.945 4.09
1059 1 2.045 40.9 6.135
1060 1 0 42.945 6.135
1061 1 4.09 40.9 4.09
1062 1 6.135 42.945 4.09
1063 1 6.135 40.9 6.135
1064 1 4.09 42.945 6.135
1065 1 8.18 40.9 4.09
1066 1 10.225 42.945 4.09
1067 1 10.225 40.9 6.135
1068 1 8.18 42.945 6.135
1069 1 12.27 40.9 4.09
1070 1 14.315 42.945 4.09
1071 1 14.315 40.9 6.135
1072 1 12.27 42.945 6.135
1073 1 16.36 40.9 4.09
1074 1 18.405 42.945 4.09
1075 1 18.405 40.9 6.135
1076 1 16.36 42.945 6.135
1077 1 20.45 40.9 4.09
1078 1 22.495 42.945 4.09
1079 1 22.495 40.9 6.135
1080 1 20.45 42.945 6.135
1081 1 24.54 40.9 4.09
1082 1 26.585 42.945 4.09
1083 1 26.585 40.9 6.135
1084 1 24.54 42.945 6.135
1085 1 28.63 40.9 4.09
1086 1 30.675 42.945 4.09
1087 1 30.675 40.9 6.135
1088 1 28.63 42.945 6.135
1089 1 32.72 40.9 4.09
1090 1 34.765 42.945 4.09
1091 1 34.765 40.9 6.135
1092 1 32.72 42.945 6.135
1093 1 36.81 40.9 4.09
1094 1 38.855 42.945 4.09
1095 1 38.855 40.9 6.135
1096 1 36.81 42.945 6.135
1097 1 40.9 40.9 4.09
1098 1 42.945 42.945 4.09
1099 1 42.945 40.9 6.135
1100 1 40.9 42.945 6.135
1101 1 44.99 40.9 4.09
1102 1 47.035 42.945 4.09
1103 1 47.035 40.9 6.135
1104 1 44.99 42.945 6.135
1105 1 0 44.99 4.09
1106 1 2.045 47.035 4.09
1107 1 2.045 44.99 6.135
1108 1 0 47.035 6.135
1109 1 4.09 44.99 4.09
1110 1 6.135 47.035 4.09
1111 1 6.135 44.99 6.135
1112 1 4.09 47.035 6.135
1113 1 8.18 44.99 4.09
1114 1 10.225 47.035 4.09
1115 1 10.225 44.99 6.135
1116 1 8.18 47.035 6.135
1117 1 12.27 44.99 4.09
1118 1 14.315 47.035 4.09
1119 1 14.315 44.99 6.135
1120 1 12.27 47.035 6.135
1121 1 16.36 44.99 4.09
1122 1 18.405 47.035 4.09
1123 1 18.405 44.99 6.135
1124 1 16.36 47.035 6.135
1125 1 20.45 44.99 4.09
1126 1 22.495 47.035 4.09
1127 1 22.495 44.99 6.135
1128 1 20.45 47.035 6.135
1129 1 24.54 44.99 4.09
1130 1 26.585 47.035 4.09
1131 1 26.585 44.99 6.135
1132 1 24.54 47.035 6.135
1133 1 28.63 44.99 4.09
1134 1 30.675 47.035 4.09
1135 1 30.675 44.99 6.135
1136 1 28.63 47.035 6.135
1137 1 32.72 44.99 4.09
1138 1 34.765 47.035 4.09
1139 1 34.765 44.99 6.135
1140 1 32.72 47.035 6.135
1141 1 36.81 44.99 4.09
1142 1 38.855 47.035 4.09
1143 1 38.855 44.99 6.135
1144 1 36.81 47.035 6.135
1145 1 40.9 44.99 4.09
1146 1 42.945 47.035 4.09
1147 1 42.945 44.99 6.135
1148 1 40.9 47.035 6.135
1149 1 44.99 44.99 4.09
1150 1 47.035 47.035 4.09
1151 1 47.035 44.99 6.135
1152 1 44.99 47.035 6.135
1153 1 0 0 8.18
1154 1 2.045 2.045 8.18
1155 1 2.045 0 10.225
1156 1 0 2.045 10.225
1157 1 4.09 0 8.18
1158 1 6.135 2.045 8.18
1159 1 6.135 0 10.225
1160 1 4.09 2.045 10.225
1161 1 8.18 0 8.18
1162 1 10.225 2.045 8.18
1163 1 10.225 0 10.225
1164 1 8.18 2.045 10.225
1165 1 12.27 0 8.18
1166 1 14.315 2.045 8.18
1167 1 14.315 0 10.225
1168 1 12.27 2.045 10.225
1169 1 16.36 0 8.18
1170 1 18.405 2.045 8.18
1171 1 18.405 0 10.225
1172 1 16.36 2.045 10.225
1173 1 20.45 0 8.18
1174 1 22.495 2.045 8.18
1175 1 22.495 0 10.225
1176 1 20.45 2.045 10.225
1177 1 24.54 0 8.18
1178 1 26.585 2.045 8.18
1179 1 26.585 0 10.225
1180 1 24.54 2.045 10.225
1181 1 28.63 0 8.18
1182 1 30.675 2.045 8.18
1183 1 30.675 0 10.225
1184 1 28.63 2.045 10.225
1185 1 32.72 0 8.18
1186 1 34.765 2.045 8.18
1187 1 34.765 0 10.225
1188 1 32.72 2.045 10.225
1189 1 36.81 0 8.18
1190 1 38.855 2.045 8.18
1191 1 38.855 0 10.225
1192 1 36.81 2.045 10.225
1193 1 40.9 0 8.18
1194 1 42.945 2.045 8.18
1195 1 42.945 0 10.225
1196 1 40.9 2.045 10.225
1197 1 44.99 0 8.18
1198 1 47.035 2.045 8.18
1199 1 47.035 0 10.225
1200 1 44.99 2.045 10.225
1201 1 0 4.09 8.18
1202 1 2.045 6.135 8.18
1203 1 2.045 4.09 10.225
1204 1 0 6.135 10.225
1205 1 4.09 4.09 8.18
1206 1 6.135 6.135 8.18
1207 1 6.135 4.09 10.225
1208 1 4.09 6.135 10.225
1209 1 8.18 4.09 8.18
1210 1 10.225 6.135 8.18
1211 1 10.225 4.09 10.225
1212 1 8.18 6.135 10.225
1213 1 12.27 4.09 8.18
1214 1 14.315 6.135 8.18
1215 1 14.315 4.09 10.225
1216 1 12.27 6.135 10.225
1217 1 16.36 4.09 8.18
1218 1 18.405 6.135 8.18
1219 1 18.405 4.09 10.225
1220 1 16.36 6.135 10.225
1221 1 20.45 4.09 8.18
1222 1 22.495 6.135 8.18
1223 1 22.495 4.09 10.225
1224 1 20.45 6.135 10.225
1225 1 24.54 4.09 8.18
1226 1 26.585 6.135 8.18
1227 1 26.585 4.09 10.225
1228 1 24.54 6.135 10.225
1229 1 28.63 4.09 8.18
1230 1 30.675 6.135 8.18
1231 1 30.675 4.09 10.225
1232 1 28.63 6.135 10.225
1233 1 32.72 4.09 8.18
1234 1 34.765 6.135 8.18
1235 1 34.765 4.09 10.225
1236 1 32.72 6.135 10.225