ITEM: TIMESTEP
0
ITEM: NUMBER OF ATOMS
6912
ITEM: BOX BOUNDS pp pp pp
0.0000000000000000e+00 4.9080000539909918e+01
0.0000000000000000e+00 4.9080000539909918e+01
0.0000000000000000e+00 4.9080000539909918e+01
ITEM: ATOMS id type x y z c_stress[1] c_stress[2] c_stress[3] c_stress[4] c_stress[5] c_stress[6] c_voro[1]
1 1 0 0 0 -1.31075 -1.31075 -1.31075 4.44693e-11 -8.89387e-11 -7.78213e-11 17.1045
2 1 2.045 2.045 0 -1.31075 -1.31075 -1.31075 -0 -0 6.6704e-11 17.1045
3 1 2.045 0 2.045 -1.31075 -1.31075 -1.31075 1.6676e-11 2.22347e-11 -2.22347e-11 17.1045
4 1 0 2.045 2.045 -1.31075 -1.31075 -1.31075 -0 -6.6704e-11 -3.3352e-11 17.1045
5 1 4.09 0 0 -1.31075 -1.31075 -1.31075 -3.89107e-11 9.38025e-11 -8.89387e-11 17.1045
6 1 6.135 2.045 0 -1.31075 -1.31075 -1.31075 -1.11173e-11 8.338e-12 -3.3352e-11 17.1045
7 1 6.135 0 2.045 -1.31075 -1.31075 -1.31075 -0 -0 2.22347e-11 17.1045
8 1 4.09 2.045 2.045 -1.31075 -1.31075 -1.31075 -8.30326e-11 6.6704e-11 -4.44693e-11 17.1045
9 1 8.18 0 0 -1.31075 -1.31075 -1.31075 5.55867e-12 4.86383e-12 -8.89387e-11 17.1045
10 1 10.225 2.045 0 -1.31075 -1.31075 -1.31075 -1.11173e-11 8.338e-12 -3.3352e-11 17.1045
11 1 10.225 0 2.045 -1.31075 -1.31075 -1.31075 -0 -0 2.22347e-11 17.1045
12 1 8.18 2.045 2.045 -1.31075 -1.31075 -1.31075 5.90608e-12 2.22347e-11 -4.44693e-11 17.1045
13 1 12.27 0 0 -1.31075 -1.31075 -1.31075 5.55867e-12 4.86383e-12 -8.89387e-11 17.1045
14 1 14.315 2.045 0 -1.31075 -1.31075 -1.31075 -1.11173e-11 8.338e-12 -3.3352e-11 17.1045
15 1 14.315 0 2.045 -1.31075 -1.31075 -1.31075 -0 -0 2.22347e-11 17.1045
16 1 12.27 2.045 2.045 -1.31075 -1.31075 -1.31075 5.90608e-12 2.22347e-11 -4.44693e-11 17.1045
17 1 16.36 0 0 -1.31075 -1.31075 -1.31075 5.55867e-12 4.86383e-12 -8.89387e-11 17.1045
18 1 18.405 2.045 0 -1.31075 -1.31075 -1.31075 -1.11173e-11 8.338e-12 -3.3352e-11 17.1045
19 1 18.405 0 2.045 -1.31075 -1.31075 -1.31075 -0 -0 2.22347e-11 17.1045
20 1 16.36 2.045 2.045 -1.31075 -1.31075 -1.31075 5.90608e-12 2.22347e-11 -4.44693e-11 17.1045
21 1 20.45 0 0 -1.31075 -1.31075 -1.31075 5.55867e-12 4.86383e-12 -8.89387e-11 17.1045
22 1 22.495 2.045 0 -1.31075 -1.31075 -1.31075 -1.11173e-11 8.338e-12 -3.3352e-11 17.1045
23 1 22.495 0 2.045 -1.31075 -1.31075 -1.31075 -0 -0 2.22347e-11 17.1045
24 1 20.45 2.045 2.045 -1.31075 -1.31075 -1.31075 5.90608e-12 2.22347e-11 -4.44693e-11 17.1045
25 1 24.54 0 0 -1.31075 -1.31075 -1.31075 5.55867e-12 4.86383e-12 -8.89387e-11 17.1045
26 1 26.585 2.045 0 -1.31075 -1.31075 -1.31075 -1.11173e-11 8.338e-12 -3.3352e-11 17.1045
27 1 26.585 0 2.045 -1.31075 -1.31075 -1.31075 -0 -0 2.22347e-11 17.1045
28 1 24.54 2.045 2.045 -1.31075 -1.31075 -1.31075 5.90608e-12 2.22347e-11 -4.44693e-11 17.1045
29 1 28.63 0 0 -1.31075 -1.31075 -1.31075 5.55867e-12 4.86383e-12 -8.89387e-11 17.1045
30 1 30.675 2.045 0 -1.31075 -1.31075 -1.31075 -1.11173e-11 8.338e-12 -3.3352e-11 17.1045
31 1 30.675 0 2.045 -1.31075 -1.31075 -1.31075 -0 -0 2.22347e-11 17.1045
32 1 28.63 2.045 2.045 -1.31075 -1.31075 -1.31075 5.90608e-12 2.22347e-11 -4.44693e-11 17.1045
33 1 32.72 0 0 -1.31075 -1.31075 -1.31075 5.55867e-12 4.86383e-12 -8.89387e-11 17.1045
34 1 34.765 2.045 0 -1.31075 -1.31075 -1.31075 -1.11173e-11 8.338e-12 -3.3352e-11 17.1045
35 1 34.765 0 2.045 -1.31075 -1.31075 -1.31075 -0 -0 2.22347e-11 17.1045
36 1 32.72 2.045 2.045 -1.31075 -1.31075 -1.31075 5.90608e-12 2.22347e-11 -4.44693e-11 17.1045
37 1 36.81 0 0 -1.31075 -1.31075 -1.31075 5.55867e-12 4.86383e-12 -8.89387e-11 17.1045
38 1 38.855 2.045 0 -1.31075 -1.31075 -1.31075 -1.11173e-11 8.338e-12 -3.3352e-11 17.1045
39 1 38.855 0 2.045 -1.31075 -1.31075 -1.31075 -0 -0 2.22347e-11 17.1045
40 1 36.81 2.045 2.045 -1.31075 -1.31075 -1.31075 5.90608e-12 2.22347e-11 -4.44693e-11 17.1045
41 1 40.9 0 0 -1.31075 -1.31075 -1.31075 5.55867e-12 4.86383e-12 -8.89387e-11 17.1045
42 1 42.945 2.045 0 -1.31075 -1.31075 -1.31075 -1.11173e-11 5.28073e-11 -3.3352e-11 17.1045
43 1 42.945 0 2.045 -1.31075 -1.31075 -1.31075 -8.338e-12 -0 2.22347e-11 17.1045
44 1 40.9 2.045 2.045 -1.31075 -1.31075 -1.31075 6.2535e-12 2.22347e-11 -4.44693e-11 17.1045
45 1 44.99 0 0 -1.31075 -1.31075 -1.31075 5.55867e-12 5.55867e-12 -2.77933e-12 17.1045
46 1 47.035 2.045 0 -1.31075 -1.31075 -1.31075 -1.11173e-11 -3.89107e-11 -3.3352e-11 17.1045
47 1 47.035 0 2.045 -1.31075 -1.31075 -1.31075 1.11173e-11 -0 3.3352e-11 17.1045
48 1 44.99 2.045 2.045 -1.31075 -1.31075 -1.31075 5.07228e-11 2.29295e-11 -4.44693e-11 17.1045
49 1 0 4.09 0 -1.31075 -1.31075 -1.31075 -3.89107e-11 -1.11173e-11 9.44973e-11 17.1045
50 1 2.045 6.135 0 -1.31075 -1.31075 -1.31075 -0 -3.89107e-11 2.77933e-12 17.1045
51 1 2.045 4.09 2.045 -1.31075 -1.31075 -1.31075 -3.3352e-11 -1.11173e-11 8.96335e-11 17.1045
52 1 0 6.135 2.045 -1.31075 -1.31075 -1.31075 -0 -0 1.11173e-11 17.1045
53 1 4.09 4.09 0 -1.31075 -1.31075 -1.31075 4.44693e-11 -6.2535e-12 3.26572e-11 17.1045
54 1 6.135 6.135 0 -1.31075 -1.31075 -1.31075 -1.11173e-11 8.338e-12 -0 17.1045
55 1 6.135 4.09 2.045 -1.31075 -1.31075 -1.31075 5.55867e-12 -2.77933e-11 2.29295e-11 17.1045
56 1 4.09 6.135 2.045 -1.31075 -1.31075 -1.31075 5.55867e-12 2.22347e-11 9.03283e-12 17.1045
57 1 8.18 4.09 0 -1.31075 -1.31075 -1.31075 -0 -6.2535e-12 3.26572e-11 17.1045
58 1 10.225 6.135 0 -1.31075 -1.31075 -1.31075 -1.11173e-11 8.338e-12 -0 17.1045
59 1 10.225 4.09 2.045 -1.31075 -1.31075 -1.31075 5.55867e-12 -2.77933e-11 2.29295e-11 17.1045
60 1 8.18 6.135 2.045 -1.31075 -1.31075 -1.31075 5.55867e-12 2.22347e-11 9.03283e-12 17.1045
61 1 12.27 4.09 0 -1.31075 -1.31075 -1.31075 -0 -6.2535e-12 3.26572e-11 17.1045
62 1 14.315 6.135 0 -1.31075 -1.31075 -1.31075 -1.11173e-11 8.338e-12 -0 17.1045
63 1 14.315 4.09 2.045 -1.31075 -1.31075 -1.31075 5.55867e-12 -2.77933e-11 2.29295e-11 17.1045
64 1 12.27 6.135 2.045 -1.31075 -1.31075 -1.31075 5.55867e-12 2.22347e-11 9.03283e-12 17.1045
65 1 16.36 4.09 0 -1.31075 -1.31075 -1.31075 -0 -6.2535e-12 3.26572e-11 17.1045
66 1 18.405 6.135 0 -1.31075 -1.31075 -1.31075 -1.11173e-11 8.338e-12 -0 17.1045
67 1 18.405 4.09 2.045 -1.31075 -1.31075 -1.31075 5.55867e-12 -2.77933e-11 2.29295e-11 17.1045
68 1 16.36 6.135 2.045 -1.31075 -1.31075 -1.31075 5.55867e-12 2.22347e-11 9.03283e-12 17.1045
69 1 20.45 4.09 0 -1.31075 -1.31075 -1.31075 -0 -6.2535e-12 3.26572e-11 17.1045
70 1 22.495 6.135 0 -1.31075 -1.31075 -1.31075 -1.11173e-11 8.338e-12 -0 17.1045
71 1 22.495 4.09 2.045 -1.31075 -1.31075 -1.31075 5.55867e-12 -2.77933e-11 2.29295e-11 17.1045
72 1 20.45 6.135 2.045 -1.31075 -1.31075 -1.31075 5.55867e-12 2.22347e-11 9.03283e-12 17.1045
73 1 24.54 4.09 0 -1.31075 -1.31075 -1.31075 -0 -6.2535e-12 3.26572e-11 17.1045
74 1 26.585 6.135 0 -1.31075 -1.31075 -1.31075 -1.11173e-11 8.338e-12 -0 17.1045
75 1 26.585 4.09 2.045 -1.31075 -1.31075 -1.31075 5.55867e-12 -2.77933e-11 2.29295e-11 17.1045
76 1 24.54 6.135 2.045 -1.31075 -1.31075 -1.31075 5.55867e-12 2.22347e-11 9.03283e-12 17.1045
77 1 28.63 4.09 0 -1.31075 -1.31075 -1.31075 -0 -6.2535e-12 3.26572e-11 17.1045
78 1 30.675 6.135 0 -1.31075 -1.31075 -1.31075 -1.11173e-11 8.338e-12 -0 17.1045
79 1 30.675 4.09 2.045 -1.31075 -1.31075 -1.31075 5.55867e-12 -2.77933e-11 2.29295e-11 17.1045
80 1 28.63 6.135 2.045 -1.31075 -1.31075 -1.31075 5.55867e-12 2.22347e-11 9.03283e-12 17.1045
81 1 32.72 4.09 0 -1.31075 -1.31075 -1.31075 -0 -6.2535e-12 3.26572e-11 17.1045
82 1 34.765 6.135 0 -1.31075 -1.31075 -1.31075 -1.11173e-11 8.338e-12 -0 17.1045
83 1 34.765 4.09 2.045 -1.31075 -1.31075 -1.31075 5.55867e-12 -2.77933e-11 2.29295e-11 17.1045
84 1 32.72 6.135 2.045 -1.31075 -1.31075 -1.31075 5.55867e-12 2.22347e-11 9.03283e-12 17.1045
85 1 36.81 4.09 0 -1.31075 -1.31075 -1.31075 -0 -6.2535e-12 3.26572e-11 17.1045
86 1 38.855 6.135 0 -1.31075 -1.31075 -1.31075 -1.11173e-11 8.338e-12 -0 17.1045
87 1 38.855 4.09 2.045 -1.31075 -1.31075 -1.31075 5.55867e-12 -2.77933e-11 2.29295e-11 17.1045
88 1 36.81 6.135 2.045 -1.31075 -1.31075 -1.31075 5.55867e-12 2.22347e-11 9.03283e-12 17.1045
89 1 40.9 4.09 0 -1.31075 -1.31075 -1.31075 -0 -6.2535e-12 3.26572e-11 17.1045
90 1 42.945 6.135 0 -1.31075 -1.31075 -1.31075 -1.11173e-11 8.338e-12 -0 17.1045
91 1 42.945 4.09 2.045 -1.31075 -1.31075 -1.31075 5.0028e-11 -2.77933e-11 2.29295e-11 17.1045
92 1 40.9 6.135 2.045 -1.31075 -1.31075 -1.31075 5.55867e-12 2.22347e-11 9.03283e-12 17.1045
93 1 44.99 4.09 0 -1.31075 -1.31075 -1.31075 -1.11173e-11 -5.55867e-12 -2.77933e-12 17.1045
94 1 47.035 6.135 0 -1.31075 -1.31075 -1.31075 -5.55867e-12 5.28073e-11 1.6676e-11 17.1045
95 1 47.035 4.09 2.045 -1.31075 -1.31075 -1.31075 5.55867e-11 -0 -0 17.1045
96 1 44.99 6.135 2.045 -1.31075 -1.31075 -1.31075 1.45915e-11 2.29295e-11 9.03283e-12 17.1045
97 1 0 8.18 0 -1.31075 -1.31075 -1.31075 5.55867e-12 -1.11173e-11 1.6676e-11 17.1045
98 1 2.045 10.225 0 -1.31075 -1.31075 -1.31075 -0 -3.89107e-11 2.77933e-12 17.1045
99 1 2.045 8.18 2.045 -1.31075 -1.31075 -1.31075 1.11173e-11 -1.11173e-11 4.51642e-11 17.1045
100 1 0 10.225 2.045 -1.31075 -1.31075 -1.31075 -0 -0 1.11173e-11 17.1045
101 1 4.09 8.18 0 -1.31075 -1.31075 -1.31075 -0 -6.2535e-12 -1.18122e-11 17.1045
102 1 6.135 10.225 0 -1.31075 -1.31075 -1.31075 -1.11173e-11 8.338e-12 -0 17.1045
103 1 6.135 8.18 2.045 -1.31075 -1.31075 -1.31075 5.55867e-12 -2.77933e-11 2.29295e-11 17.1045
104 1 4.09 10.225 2.045 -1.31075 -1.31075 -1.31075 5.55867e-12 2.22347e-11 9.03283e-12 17.1045
105 1 8.18 8.18 0 -1.31075 -1.31075 -1.31075 -0 -6.2535e-12 -1.18122e-11 17.1045
106 1 10.225 10.225 0 -1.31075 -1.31075 -1.31075 -1.11173e-11 8.338e-12 -0 17.1045
107 1 10.225 8.18 2.045 -1.31075 -1.31075 -1.31075 5.55867e-12 -2.77933e-11 2.29295e-11 17.1045
108 1 8.18 10.225 2.045 -1.31075 -1.31075 -1.31075 5.55867e-12 2.22347e-11 9.03283e-12 17.1045
109 1 12.27 8.18 0 -1.31075 -1.31075 -1.31075 -0 -6.2535e-12 -1.18122e-11 17.1045
110 1 14.315 10.225 0 -1.31075 -1.31075 -1.31075 -1.11173e-11 8.338e-12 -0 17.1045
111 1 14.315 8.18 2.045 -1.31075 -1.31075 -1.31075 5.55867e-12 -2.77933e-11 2.29295e-11 17.1045
112 1 12.27 10.225 2.045 -1.31075 -1.31075 -1.31075 5.55867e-12 2.22347e-11 9.03283e-12 17.1045
113 1 16.36 8.18 0 -1.31075 -1.31075 -1.31075 -0 -6.2535e-12 -1.18122e-11 17.1045
114 1 18.405 10.225 0 -1.31075 -1.31075 -1.31075 -1.11173e-11 8.338e-12 -0 17.1045
115 1 18.405 8.18 2.045 -1.31075 -1.31075 -1.31075 5.55867e-12 -2.77933e-11 2.29295e-11 17.1045
116 1 16.36 10.225 2.045 -1.31075 -1.31075 -1.31075 5.55867e-12 2.22347e-11 9.03283e-12 17.1045
117 1 20.45 8.18 0 -1.31075 -1.31075 -1.31075 -0 -6.2535e-12 -1.18122e-11 17.1045
118 1 22.495 10.225 0 -1.31075 -1.31075 -1.31075 -1.11173e-11 8.338e-12 -0 17.1045
119 1 22.495 8.18 2.045 -1.31075 -1.31075 -1.31075 5.55867e-12 -2.77933e-11 2.29295e-11 17.1045
120 1 20.45 10.225 2.045 -1.31075 -1.31075 -1.31075 5.55867e-12 2.22347e-11 9.03283e-12 17.1045
121 1 24.54 8.18 0 -1.31075 -1.31075 -1.31075 -0 -6.2535e-12 -1.18122e-11 17.1045
122 1 26.585 10.225 0 -1.31075 -1.31075 -1.31075 -1.11173e-11 8.338e-12 -0 17.1045
123 1 26.585 8.18 2.045 -1.31075 -1.31075 -1.31075 5.55867e-12 -2.77933e-11 2.29295e-11 17.1045
124 1 24.54 10.225 2.045 -1.31075 -1.31075 -1.31075 5.55867e-12 2.22347e-11 9.03283e-12 17.1045
125 1 28.63 8.18 0 -1.31075 -1.31075 -1.31075 -0 -6.2535e-12 -1.18122e-11 17.1045
126 1 30.675 10.225 0 -1.31075 -1.31075 -1.31075 -1.11173e-11 8.338e-12 -0 17.1045
127 1 30.675 8.18 2.045 -1.31075 -1.31075 -1.31075 5.55867e-12 -2.77933e-11 2.29295e-11 17.1045
128 1 28.63 10.225 2.045 -1.31075 -1.31075 -1.31075 5.55867e-12 2.22347e-11 9.03283e-12 17.1045
129 1 32.72 8.18 0 -1.31075 -1.31075 -1.31075 -0 -6.2535e-12 -1.18122e-11 17.1045
130 1 34.765 10.225 0 -1.31075 -1.31075 -1.31075 -1.11173e-11 8.338e-12 -0 17.1045
131 1 34.765 8.18 2.045 -1.31075 -1.31075 -1.31075 5.55867e-12 -2.77933e-11 2.29295e-11 17.1045
132 1 32.72 10.225 2.045 -1.31075 -1.31075 -1.31075 5.55867e-12 2.22347e-11 9.03283e-12 17.1045
133 1 36.81 8.18 0 -1.31075 -1.31075 -1.31075 -0 -6.2535e-12 -1.18122e-11 17.1045
134 1 38.855 10.225 0 -1.31075 -1.31075 -1.31075 -1.11173e-11 8.338e-12 -0 17.1045
135 1 38.855 8.18 2.045 -1.31075 -1.31075 -1.31075 5.55867e-12 -2.77933e-11 2.29295e-11 17.1045
136 1 36.81 10.225 2.045 -1.31075 -1.31075 -1.31075 5.55867e-12 2.22347e-11 9.03283e-12 17.1045
137 1 40.9 8.18 0 -1.31075 -1.31075 -1.31075 -0 -6.2535e-12 -1.18122e-11 17.1045
138 1 42.945 10.225 0 -1.31075 -1.31075 -1.31075 -1.11173e-11 8.338e-12 -0 17.1045
139 1 42.945 8.18 2.045 -1.31075 -1.31075 -1.31075 5.55867e-12 -2.77933e-11 2.29295e-11 17.1045
140 1 40.9 10.225 2.045 -1.31075 -1.31075 -1.31075 5.55867e-12 2.22347e-11 9.03283e-12 17.1045
141 1 44.99 8.18 0 -1.31075 -1.31075 -1.31075 -1.11173e-11 1.6676e-11 8.338e-12 17.1045
142 1 47.035 10.225 0 -1.31075 -1.31075 -1.31075 -5.55867e-12 5.28073e-11 1.6676e-11 17.1045
143 1 47.035 8.18 2.045 -1.31075 -1.31075 -1.31075 5.55867e-11 -0 1.6676e-11 17.1045
144 1 44.99 10.225 2.045 -1.31075 -1.31075 -1.31075 1.42441e-11 2.29295e-11 9.03283e-12 17.1045
145 1 0 12.27 0 -1.31075 -1.31075 -1.31075 5.55867e-12 -1.11173e-11 1.6676e-11 17.1045
146 1 2.045 14.315 0 -1.31075 -1.31075 -1.31075 -0 -3.89107e-11 2.77933e-12 17.1045
147 1 2.045 12.27 2.045 -1.31075 -1.31075 -1.31075 1.11173e-11 -1.11173e-11 4.51642e-11 17.1045
148 1 0 14.315 2.045 -1.31075 -1.31075 -1.31075 -0 -0 1.11173e-11 17.1045
149 1 4.09 12.27 0 -1.31075 -1.31075 -1.31075 -0 -6.2535e-12 -1.18122e-11 17.1045
150 1 6.135 14.315 0 -1.31075 -1.31075 -1.31075 -1.11173e-11 8.338e-12 -0 17.1045
151 1 6.135 12.27 2.045 -1.31075 -1.31075 -1.31075 5.55867e-12 -2.77933e-11 2.29295e-11 17.1045
152 1 4.09 14.315 2.045 -1.31075 -1.31075 -1.31075 5.55867e-12 2.22347e-11 9.03283e-12 17.1045
153 1 8.18 12.27 0 -1.31075 -1.31075 -1.31075 -0 -6.2535e-12 -1.18122e-11 17.1045
154 1 10.225 14.315 0 -1.31075 -1.31075 -1.31075 -1.11173e-11 8.338e-12 -0 17.1045
155 1 10.225 12.27 2.045 -1.31075 -1.31075 -1.31075 5.55867e-12 -2.77933e-11 2.29295e-11 17.1045
156 1 8.18 14.315 2.045 -1.31075 -1.31075 -1.31075 5.55867e-12 2.22347e-11 9.03283e-12 17.1045
157 1 12.27 12.27 0 -1.31075 -1.31075 -1.31075 -0 -6.2535e-12 -1.18122e-11 17.1045
158 1 14.315 14.315 0 -1.31075 -1.31075 -1.31075 -1.11173e-11 8.338e-12 -0 17.1045
159 1 14.315 12.27 2.045 -1.31075 -1.31075 -1.31075 5.55867e-12 -2.77933e-11 2.29295e-11 17.1045
160 1 12.27 14.315 2.045 -1.31075 -1.31075 -1.31075 5.55867e-12 2.22347e-11 9.03283e-12 17.1045
161 1 16.36 12.27 0 -1.31075 -1.31075 -1.31075 -0 -6.2535e-12 -1.18122e-11 17.1045
162 1 18.405 14.315 0 -1.31075 -1.31075 -1.31075 -1.11173e-11 8.338e-12 -0 17.1045
163 1 18.405 12.27 2.045 -1.31075 -1.31075 -1.31075 5.55867e-12 -2.77933e-11 2.29295e-11 17.1045
164 1 16.36 14.315 2.045 -1.31075 -1.31075 -1.31075 5.55867e-12 2.22347e-11 9.03283e-12 17.1045
165 1 20.45 12.27 0 -1.31075 -1.31075 -1.31075 -0 -6.2535e-12 -1.18122e-11 17.1045
166 1 22.495 14.315 0 -1.31075 -1.31075 -1.31075 -1.11173e-11 8.338e-12 -0 17.1045
167 1 22.495 12.27 2.045 -1.31075 -1.31075 -1.31075 5.55867e-12 -2.77933e-11 2.29295e-11 17.1045
168 1 20.45 14.315 2.045 -1.31075 -1.31075 -1.31075 5.55867e-12 2.22347e-11 9.03283e-12 17.1045
169 1 24.54 12.27 0 -1.31075 -1.31075 -1.31075 -0 -6.2535e-12 -1.18122e-11 17.1045
170 1 26.585 14.315 0 -1.31075 -1.31075 -1.31075 -1.11173e-11 8.338e-12 -0 17.1045
171 1 26.585 12.27 2.045 -1.31075 -1.31075 -1.31075 5.55867e-12 -2.77933e-11 2.29295e-11 17.1045
172 1 24.54 14.315 2.045 -1.31075 -1.31075 -1.31075 5.55867e-12 2.22347e-11 9.03283e-12 17.1045
173 1 28.63 12.27 0 -1.31075 -1.31075 -1.31075 -0 -6.2535e-12 -1.18122e-11 17.1045
174 1 30.675 14.315 0 -1.31075 -1.31075 -1.31075 -1.11173e-11 8.338e-12 -0 17.1045
175 1 30.675 12.27 2.045 -1.31075 -1.31075 -1.31075 5.55867e-12 -2.77933e-11 2.29295e-11 17.1045
176 1 28.63 14.315 2.045 -1.31075 -1.31075 -1.31075 5.55867e-12 2.22347e-11 9.03283e-12 17.1045
177 1 32.72 12.27 0 -1.31075 -1.31075 -1.31075 -0 -6.2535e-12 -1.18122e-11 17.1045
178 1 34.765 14.315 0 -1.31075 -1.31075 -1.31075 -1.11173e-11 8.338e-12 -0 17.1045
179 1 34.765 12.27 2.045 -1.31075 -1.31075 -1.31075 5.55867e-12 -2.77933e-11 2.29295e-11 17.1045
180 1 32.72 14.315 2.045 -1.31075 -1.31075 -1.31075 5.55867e-12 2.22347e-11 9.03283e-12 17.1045
181 1 36.81 12.27 0 -1.31075 -1.31075 -1.31075 -0 -6.2535e-12 -1.18122e-11 17.1045
182 1 38.855 14.315 0 -1.31075 -1.31075 -1.31075 -1.11173e-11 8.338e-12 -0 17.1045
183 1 38.855 12.27 2.045 -1.31075 -1.31075 -1.31075 5.55867e-12 -2.77933e-11 2.29295e-11 17.1045
184 1 36.81 14.315 2.045 -1.31075 -1.31075 -1.31075 5.55867e-12 2.22347e-11 9.03283e-12 17.1045
185 1 40.9 12.27 0 -1.31075 -1.31075 -1.31075 -0 -6.2535e-12 -1.18122e-11 17.1045
186 1 42.945 14.315 0 -1.31075 -1.31075 -1.31075 -1.11173e-11 8.338e-12 -0 17.1045
187 1 42.945 12.27 2.045 -1.31075 -1.31075 -1.31075 5.55867e-12 -2.77933e-11 2.29295e-11 17.1045
188 1 40.9 14.315 2.045 -1.31075 -1.31075 -1.31075 5.55867e-12 2.22347e-11 9.03283e-12 17.1045
189 1 44.99 12.27 0 -1.31075 -1.31075 -1.31075 -1.11173e-11 1.6676e-11 8.338e-12 17.1045
190 1 47.035 14.315 0 -1.31075 -1.31075 -1.31075 -5.55867e-12 5.28073e-11 1.6676e-11 17.1045
191 1 47.035 12.27 2.045 -1.31075 -1.31075 -1.31075 5.55867e-11 -0 1.6676e-11 17.1045
192 1 44.99 14.315 2.045 -1.31075 -1.31075 -1.31075 1.42441e-11 2.29295e-11 9.03283e-12 17.1045
193 1 0 16.36 0 -1.31075 -1.31075 -1.31075 5.55867e-12 -1.11173e-11 1.6676e-11 17.1045
194 1 2.045 18.405 0 -1.31075 -1.31075 -1.31075 -0 -3.89107e-11 2.77933e-12 17.1045
195 1 2.045 16.36 2.045 -1.31075 -1.31075 -1.31075 1.11173e-11 -1.11173e-11 4.51642e-11 17.1045
196 1 0 18.405 2.045 -1.31075 -1.31075 -1.31075 -0 -0 1.11173e-11 17.1045
197 1 4.09 16.36 0 -1.31075 -1.31075 -1.31075 -0 -6.2535e-12 -1.18122e-11 17.1045
198 1 6.135 18.405 0 -1.31075 -1.31075 -1.31075 -1.11173e-11 8.338e-12 -0 17.1045
199 1 6.135 16.36 2.045 -1.31075 -1.31075 -1.31075 5.55867e-12 -2.77933e-11 2.29295e-11 17.1045
200 1 4.09 18.405 2.045 -1.31075 -1.31075 -1.31075 5.55867e-12 2.22347e-11 9.03283e-12 17.1045
201 1 8.18 16.36 0 -1.31075 -1.31075 -1.31075 -0 -6.2535e-12 -1.18122e-11 17.1045
202 1 10.225 18.405 0 -1.31075 -1.31075 -1.31075 -1.11173e-11 8.338e-12 -0 17.1045
203 1 10.225 16.36 2.045 -1.31075 -1.31075 -1.31075 5.55867e-12 -2.77933e-11 2.29295e-11 17.1045
204 1 8.18 18.405 2.045 -1.31075 -1.31075 -1.31075 5.55867e-12 2.22347e-11 9.03283e-12 17.1045
205 1 12.27 16.36 0 -1.31075 -1.31075 -1.31075 -0 -6.2535e-12 -1.18122e-11 17.1045
206 1 14.315 18.405 0 -1.31075 -1.31075 -1.31075 -1.11173e-11 8.338e-12 -0 17.1045
207 1 14.315 16.36 2.045 -1.31075 -1.31075 -1.31075 5.55867e-12 -2.77933e-11 2.29295e-11 17.1045
208 1 12.27 18.405 2.045 -1.31075 -1.31075 -1.31075 5.55867e-12 2.22347e-11 9.03283e-12 17.1045
209 1 16.36 16.36 0 -1.31075 -1.31075 -1.31075 -0 -6.2535e-12 -1.18122e-11 17.1045
210 1 18.405 18.405 0 -1.31075 -1.31075 -1.31075 -1.11173e-11 8.338e-12 -0 17.1045
211 1 18.405 16.36 2.045 -1.31075 -1.31075 -1.31075 5.55867e-12 -2.77933e-11 2.29295e-11 17.1045
212 1 16.36 18.405 2.045 -1.31075 -1.31075 -1.31075 5.55867e-12 2.22347e-11 9.03283e-12 17.1045
213 1 20.45 16.36 0 -1.31075 -1.31075 -1.31075 -0 -6.2535e-12 -1.18122e-11 17.1045
214 1 22.495 18.405 0 -1.31075 -1.31075 -1.31075 -1.11173e-11 8.338e-12 -0 17.1045
215 1 22.495 16.36 2.045 -1.31075 -1.31075 -1.31075 5.55867e-12 -2.77933e-11 2.29295e-11 17.1045
216 1 20.45 18.405 2.045 -1.31075 -1.31075 -1.31075 5.55867e-12 2.22347e-11 9.03283e-12 17.1045
217 1 24.54 16.36 0 -1.31075 -1.31075 -1.31075 -0 -6.2535e-12 -1.18122e-11 17.1045
218 1 26.585 18.405 0 -1.31075 -1.31075 -1.31075 -1.11173e-11 8.338e-12 -0 17.1045
219 1 26.585 16.36 2.045 -1.31075 -1.31075 -1.31075 5.55867e-12 -2.77933e-11 2.29295e-11 17.1045
220 1 24.54 18.405 2.045 -1.31075 -1.31075 -1.31075 5.55867e-12 2.22347e-11 9.03283e-12 17.1045
221 1 28.63 16.36 0 -1.31075 -1.31075 -1.31075 -0 -6.2535e-12 -1.18122e-11 17.1045
222 1 30.675 18.405 0 -1.31075 -1.31075 -1.31075 -1.11173e-11 8.338e-12 -0 17.1045
223 1 30.675 16.36 2.045 -1.31075 -1.31075 -1.31075 5.55867e-12 -2.77933e-11 2.29295e-11 17.1045
224 1 28.63 18.405 2.045 -1.31075 -1.31075 -1.31075 5.55867e-12 2.22347e-11 9.03283e-12 17.1045
225 1 32.72 16.36 0 -1.31075 -1.31075 -1.31075 -0 -6.2535e-12 -1.18122e-11 17.1045
226 1 34.765 18.405 0 -1.31075 -1.31075 -1.31075 -1.11173e-11 8.338e-12 -0 17.1045
227 1 34.765 16.36 2.045 -1.31075 -1.31075 -1.31075 5.55867e-12 -2.77933e-11 2.29295e-11 17.1045
228 1 32.72 18.405 2.045 -1.31075 -1.31075 -1.31075 5.55867e-12 2.22347e-11 9.03283e-12 17.1045
229 1 36.81 16.36 0 -1.31075 -1.31075 -1.31075 -0 -6.2535e-12 -1.18122e-11 17.1045
230 1 38.855 18.405 0 -1.31075 -1.31075 -1.31075 -1.11173e-11 8.338e-12 -0 17.1045
231 1 38.855 16.36 2.045 -1.31075 -1.31075 -1.31075 5.55867e-12 -2.77933e-11 2.29295e-11 17.1045
232 1 36.81 18.405 2.045 -1.31075 -1.31075 -1.31075 5.55867e-12 2.22347e-11 9.03283e-12 17.1045
233 1 40.9 16.36 0 -1.31075 -1.31075 -1.31075 -0 -6.2535e-12 -1.18122e-11 17.1045
234 1 42.945 18.405 0 -1.31075 -1.31075 -1.31075 -1.11173e-11 8.338e-12 -0 17.1045
235 1 42.945 16.36 2.045 -1.31075 -1.31075 -1.31075 5.55867e-12 -2.77933e-11 2.29295e-11 17.1045
236 1 40.9 18.405 2.045 -1.31075 -1.31075 -1.31075 5.55867e-12 2.22347e-11 9.03283e-12 17.1045
237 1 44.99 16.36 0 -1.31075 -1.31075 -1.31075 -1.11173e-11 1.6676e-11 8.338e-12 17.1045
238 1 47.035 18.405 0 -1.31075 -1.31075 -1.31075 -5.55867e-12 5.28073e-11 1.6676e-11 17.1045
239 1 47.035 16.36 2.045 -1.31075 -1.31075 -1.31075 5.55867e-11 -0 1.6676e-11 17.1045
240 1 44.99 18.405 2.045 -1.31075 -1.31075 -1.31075 1.42441e-11 2.29295e-11 9.03283e-12 17.1045
241 1 0 20.45 0 -1.31075 -1.31075 -1.31075 5.55867e-12 -1.11173e-11 1.6676e-11 17.1045
242 1 2.045 22.495 0 -1.31075 -1.31075 -1.31075 -0 -3.89107e-11 2.77933e-12 17.1045
243 1 2.045 20.45 2.045 -1.31075 -1.31075 -1.31075 1.11173e-11 -1.11173e-11 4.51642e-11 17.1045
244 1 0 22.495 2.045 -1.31075 -1.31075 -1.31075 -0 -0 1.11173e-11 17.1045
245 1 4.09 20.45 0 -1.31075 -1.31075 -1.31075 -0 -6.2535e-12 -1.18122e-11 17.1045
246 1 6.135 22.495 0 -1.31075 -1.31075 -1.31075 -1.11173e-11 8.338e-12 -0 17.1045
247 1 6.135 20.45 2.045 -1.31075 -1.31075 -1.31075 5.55867e-12 -2.77933e-11 2.29295e-11 17.1045
248 1 4.09 22.495 2.045 -1.31075 -1.31075 -1.31075 5.55867e-12 2.22347e-11 9.03283e-12 17.1045
249 1 8.18 20.45 0 -1.31075 -1.31075 -1.31075 -0 -6.2535e-12 -1.18122e-11 17.1045
250 1 10.225 22.495 0 -1.31075 -1.31075 -1.31075 -1.11173e-11 8.338e-12 -0 17.1045
251 1 10.225 20.45 2.045 -1.31075 -1.31075 -1.31075 5.55867e-12 -2.77933e-11 2.29295e-11 17.1045
252 1 8.18 22.495 2.045 -1.31075 -1.31075 -1.31075 5.55867e-12 2.22347e-11 9.03283e-12 17.1045
253 1 12.27 20.45 0 -1.31075 -1.31075 -1.31075 -0 -6.2535e-12 -1.18122e-11 17.1045
254 1 14.315 22.495 0 -1.31075 -1.31075 -1.31075 -1.11173e-11 8.338e-12 -0 17.1045
255 1 14.315 20.45 2.045 -1.31075 -1.31075 -1.31075 5.55867e-12 -2.77933e-11 2.29295e-11 17.1045
256 1 12.27 22.495 2.045 -1.31075 -1.31075 -1.31075 5.55867e-12 2.22347e-11 9.03283e-12 17.1045
257 1 16.36 20.45 0 -1.31075 -1.31075 -1.31075 -0 -6.2535e-12 -1.18122e-11 17.1045
258 1 18.405 22.495 0 -1.31075 -1.31075 -1.31075 -1.11173e-11 8.338e-12 -0 17.1045
259 1 18.405 20.45 2.045 -1.31075 -1.31075 -1.31075 5.55867e-12 -2.77933e-11 2.29295e-11 17.1045
260 1 16.36 22.495 2.045 -1.31075 -1.31075 -1.31075 5.55867e-12 2.22347e-11 9.03283e-12 17.1045
261 1 20.45 20.45 0 -1.31075 -1.31075 -1.31075 -0 -6.2535e-12 -1.18122e-11 17.1045
262 1 22.495 22.495 0 -1.31075 -1.31075 -1.31075 -1.11173e-11 8.338e-12 -0 17.1045
263 1 22.495 20.45 2.045 -1.31075 -1.31075 -1.31075 5.55867e-12 -2.77933e-11 2.29295e-11 17.1045
264 1 20.45 22.495 2.045 -1.31075 -1.31075 -1.31075 5.55867e-12 2.22347e-11 9.03283e-12 17.1045
265 1 24.54 20.45 0 -1.31075 -1.31075 -1.31075 -0 -6.2535e-12 -1.18122e-11 17.1045
266 1 26.585 22.495 0 -1.31075 -1.31075 -1.31075 -1.11173e-11 8.338e-12 -0 17.1045
267 1 26.585 20.45 2.045 -1.31075 -1.31075 -1.31075 5.55867e-12 -2.77933e-11 2.29295e-11 17.1045
268 1 24.54 22.495 2.045 -1.31075 -1.31075 -1.31075 5.55867e-12 2.22347e-11 9.03283e-12 17.1045
269 1 28.63 20.45 0 -1.31075 -1.31075 -1.31075 -0 -6.2535e-12 -1.18122e-11 17.1045
270 1 30.675 22.495 0 -1.31075 -1.31075 -1.31075 -1.11173e-11 8.338e-12 -0 17.1045
271 1 30.675 20.45 2.045 -1.31075 -1.31075 -1.31075 5.55867e-12 -2.77933e-11 2.29295e-11 17.1045
272 1 28.63 22.495 2.045 -1.31075 -1.31075 -1.31075 5.55867e-12 2.22347e-11 9.03283e-12 17.1045
273 1 32.72 20.45 0 -1.31075 -1.31075 -1.31075 -0 -6.2535e-12 -1.18122e-11 17.1045
274 1 34.765 22.495 0 -1.31075 -1.31075 -1.31075 -1.11173e-11 8.338e-12 -0 17.1045
275 1 34.765 20.45 2.045 -1.31075 -1.31075 -1.31075 5.55867e-12 -2.77933e-11 2.29295e-11 17.1045
276 1 32.72 22.495 2.045 -1.31075 -1.31075 -1.31075 5.55867e-12 2.22347e-11 9.03283e-12 17.1045
277 1 36.81 20.45 0 -1.31075 -1.31075 -1.31075 -0 -6.2535e-12 -1.18122e-11 17.1045
278 1 38.855 22.495 0 -1.31075 -1.31075 -1.31075 -1.11173e-11 8.338e-12 -0 17.1045
279 1 38.855 20.45 2.045 -1.31075 -1.31075 -1.31075 5.55867e-12 -2.77933e-11 2.29295e-11 17.1045
280 1 36.81 22.495 2.045 -1.31075 -1.31075 -1.31075 5.55867e-12 2.22347e-11 9.03283e-12 17.1045
281 1 40.9 20.45 0 -1.31075 -1.31075 -1.31075 -0 -6.2535e-12 -1.18122e-11 17.1045
282 1 42.945 22.495 0 -1.31075 -1.31075 -1.31075 -1.11173e-11 8.338e-12 -0 17.1045
283 1 42.945 20.45 2.045 -1.31075 -1.31075 -1.31075 5.55867e-12 -2.77933e-11 2.29295e-11 17.1045
284 1 40.9 22.495 2.045 -1.31075 -1.31075 -1.31075 5.55867e-12 2.22347e-11 9.03283e-12 17.1045
285 1 44.99 20.45 0 -1.31075 -1.31075 -1.31075 -1.11173e-11 1.6676e-11 8.338e-12 17.1045
286 1 47.035 22.495 0 -1.31075 -1.31075 -1.31075 -5.55867e-12 5.28073e-11 1.6676e-11 17.1045
287 1 47.035 20.45 2.045 -1.31075 -1.31075 -1.31075 5.55867e-11 -0 1.6676e-11 17.1045
288 1 44.99 22.495 2.045 -1.31075 -1.31075 -1.31075 1.42441e-11 2.29295e-11 9.03283e-12 17.1045
289 1 0 24.54 0 -1.31075 -1.31075 -1.31075 5.55867e-12 -1.11173e-11 1.6676e-11 17.1045
290 1 2.045 26.585 0 -1.31075 -1.31075 -1.31075 -0 -3.89107e-11 2.77933e-12 17.1045
291 1 2.045 24.54 2.045 -1.31075 -1.31075 -1.31075 1.11173e-11 -1.11173e-11 4.51642e-11 17.1045
292 1 0 26.585 2.045 -1.31075 -1.31075 -1.31075 -0 -0 1.11173e-11 17.1045
293 1 4.09 24.54 0 -1.31075 -1.31075 -1.31075 -0 -6.2535e-12 -1.18122e-11 17.1045
294 1 6.135 26.585 0 -1.31075 -1.31075 -1.31075 -1.11173e-11 8.338e-12 -0 17.1045
295 1 6.135 24.54 2.045 -1.31075 -1.31075 -1.31075 5.55867e-12 -2.77933e-11 2.29295e-11 17.1045
296 1 4.09 26.585 2.045 -1.31075 -1.31075 -1.31075 5.55867e-12 2.22347e-11 9.03283e-12 17.1045
297 1 8.18 24.54 0 -1.31075 -1.31075 -1.31075 -0 -6.2535e-12 -1.18122e-11 17.1045
298 1 10.225 26.585 0 -1.31075 -1.31075 -1.31075 -1.11173e-11 8.338e-12 -0 17.1045
299 1 10.225 24.54 2.045 -1.31075 -1.31075 -1.31075 5.55867e-12 -2.77933e-11 2.29295e-11 17.1045
300 1 8.18 26.585 2.045 -1.31075 -1.31075 -1.31075 5.55867e-12 2.22347e-11 9.03283e-12 17.1045
301 1 12.27 24.54 0 -1.31075 -1.31075 -1.31075 -0 -6.2535e-12 -1.18122e-11 17.1045
302 1 14.315 26.585 0 -1.31075 -1.31075 -1.31075 -1.11173e-11 8.338e-12 -0 17.1045
303 1 14.315 24.54 2.045 -1.31075 -1.31075 -1.31075 5.55867e-12 -2.77933e-11 2.29295e-11 17.1045
304 1 12.27 26.585 2.045 -1.31075 -1.31075 -1.31075 5.55867e-12 2.22347e-11 9.03283e-12 17.1045
305 1 16.36 24.54 0 -1.31075 -1.31075 -1.31075 -0 -6.2535e-12 -1.18122e-11 17.1045
306 1 18.405 26.585 0 -1.31075 -1.31075 -1.31075 -1.11173e-11 8.338e-12 -0 17.1045
307 1 18.405 24.54 2.045 -1.31075 -1.31075 -1.31075 5.55867e-12 -2.77933e-11 2.29295e-11 17.1045
308 1 16.36 26.585 2.045 -1.31075 -1.31075 -1.31075 5.55867e-12 2.22347e-11 9.03283e-12 17.1045
309 1 20.45 24.54 0 -1.31075 -1.31075 -1.31075 -0 -6.2535e-12 -1.18122e-11 17.1045
310 1 22.495 26.585 0 -1.31075 -1.31075 -1.31075 -1.11173e-11 8.338e-12 -0 17.1045
311 1 22.495 24.54 2.045 -1.31075 -1.31075 -1.31075 5.55867e-12 -2.77933e-11 2.29295e-11 17.1045
312 1 20.45 26.585 2.045 -1.31075 -1.31075 -1.31075 5.55867e-12 2.22347e-11 9.03283e-12 17.1045
313 1 24.54 24.54 0 -1.31075 -1.31075 -1.31075 -0 -6.2535e-12 -1.18122e-11 17.1045
314 1 26.585 26.585 0 -1.31075 -1.31075 -1.31075 -1.11173e-11 8.338e-12 -0 17.1045
315 1 26.585 24.54 2.045 -1.31075 -1.31075 -1.31075 5.55867e-12 -2.77933e-11 2.29295e-11 17.1045
316 1 24.54 26.585 2.045 -1.31075 -1.31075 -1.31075 5.55867e-12 2.22347e-11 9.03283e-12 17.1045
317 1 28.63 24.54 0 -1.31075 -1.31075 -1.31075 -0 -6.2535e-12 -1.18122e-11 17.1045
318 1 30.675 26.585 0 -1.31075 -1.31075 -1.31075 -1.11173e-11 8.338e-12 -0 17.1045
319 1 30.675 24.54 2.045 -1.31075 -1.31075 -1.31075 5.55867e-12 -2.77933e-11 2.29295e-11 17.1045
320 1 28.63 26.585 2.045 -1.31075 -1.31075 -1.31075 5.55867e-12 2.22347e-11 9.03283e-12 17.1045
321 1 32.72 24.54 0 -1.31075 -1.31075 -1.31075 -0 -6.2535e-12 -1.18122e-11 17.1045
322 1 34.765 26.585 0 -1.31075 -1.31075 -1.31075 -1.11173e-11 8.338e-12 -0 17.1045
323 1 34.765 24.54 2.045 -1.31075 -1.31075 -1.31075 5.55867e-12 -2.77933e-11 2.29295e-11 17.1045
324 1 32.72 26.585 2.045 -1.31075 -1.31075 -1.31075 5.55867e-12 2.22347e-11 9.03283e-12 17.1045
325 1 36.81 24.54 0 -1.31075 -1.31075 -1.31075 -0 -6.2535e-12 -1.18122e-11 17.1045
326 1 38.855 26.585 0 -1.31075 -1.31075 -1.31075 -1.11173e-11 8.338e-12 -0 17.1045
327 1 38.855 24.54 2.045 -1.31075 -1.31075 -1.31075 5.55867e-12 -2.77933e-11 2.29295e-11 17.1045
328 1 36.81 26.585 2.045 -1.31075 -1.31075 -1.31075 5.55867e-12 2.22347e-11 9.03283e-12 17.1045
329 1 40.9 24.54 0 -1.31075 -1.31075 -1.31075 -0 -6.2535e-12 -1.18122e-11 17.1045
330 1 42.945 26.585 0 -1.31075 -1.31075 -1.31075 -1.11173e-11 8.338e-12 -0 17.1045
331 1 42.945 24.54 2.045 -1.31075 -1.31075 -1.31075 5.55867e-12 -2.77933e-11 2.29295e-11 17.1045