ITEM: TIMESTEP
7
ITEM: NUMBER OF ATOMS
6912
ITEM: BOX BOUNDS pp pp pp
0.0000000000000000e+00 4.9080000539909918e+01
0.0000000000000000e+00 4.9080000539909918e+01
0.0000000000000000e+00 4.9080000539909918e+01
ITEM: ATOMS id type x y z c_stress[1] c_stress[2] c_stress[3] c_stress[4] c_stress[5] c_stress[6] c_voro[1]
1 1 -2.76876e-07 -2.76831e-07 -2.76877e-07 -0.766351 -0.766579 -0.766077 -0.00122454 0.00149388 -0.00130402 17.1045
2 1 2.045 2.045 -2.76871e-07 -0.792803 -0.793379 -0.790315 -0.000896013 0.00124646 -0.000895844 17.1045
3 1 2.045 -2.7685e-07 2.045 -0.795748 -0.793321 -0.795717 -0.000144853 -1.13438e-07 5.97906e-08 17.1045
4 1 -2.76882e-07 2.045 2.045 -0.788672 -0.791713 -0.790475 -0.00130752 6.56145e-08 -1.09627e-07 17.1045
5 1 4.09 -2.7685e-07 -2.76854e-07 -0.826493 -0.809574 -0.809512 5.26786e-08 5.64014e-08 -0.000144959 17.1045
8 1 4.09 2.045 2.045 -0.849763 -0.835392 -0.835239 1.30493e-08 6.46397e-09 -1.09544e-07 17.1045
49 1 -2.7709e-07 4.09 -2.77097e-07 -0.778772 -0.800736 -0.776548 -0.00740959 0.0129818 -0.00825109 17.1045
51 1 2.045 4.09 2.045 -0.831985 -0.847346 -0.831743 -0.000851283 -1.17269e-07 -5.02403e-09 17.1045
53 1 4.09 4.09 -2.76873e-07 -0.862519 -0.863598 -0.84575 1.22324e-07 6.38357e-08 -0.000851241 17.1045
577 1 -2.76876e-07 -2.76831e-07 4.09 -0.806046 -0.806274 -0.822782 -0.00122454 -0.00149387 0.00130405 17.1045
578 1 2.045 2.045 4.09 -0.832498 -0.833074 -0.847021 -0.000896019 -0.00124639 0.000895907 17.1045
581 1 4.09 -2.7685e-07 4.09 -0.866187 -0.849268 -0.866218 5.35537e-08 1.18388e-07 0.000144978 17.1045
625 1 -2.7709e-07 4.09 4.09 -0.818466 -0.840431 -0.833253 -0.00740958 -0.0129818 0.00825126 17.1045
629 1 4.09 4.09 4.09 -0.902213 -0.903293 -0.902455 1.11337e-07 1.08383e-07 0.000851404 17.1045
6 1 6.135 2.045 -2.76871e-07 -0.801364 -0.804602 -0.801539 0.000895686 -0.00124624 -0.000895832 17.1045
7 1 6.135 -2.7685e-07 2.045 -0.804309 -0.804545 -0.80694 0.000145082 -2.08868e-07 5.30964e-08 17.1045
9 1 8.18 -2.76831e-07 -2.76877e-07 -0.921508 -0.876256 -0.875753 0.00122464 -0.00149379 -0.00130403 17.1045
12 1 8.18 2.045 2.045 -0.943829 -0.901389 -0.900151 0.00130752 -6.61409e-08 -1.04186e-07 17.1045
55 1 6.135 4.09 2.045 -0.840546 -0.858569 -0.842966 0.000851365 -2.06374e-07 1.96812e-09 17.1045
57 1 8.18 4.09 -2.77097e-07 -0.933929 -0.910412 -0.886224 0.00740977 -0.0129818 -0.00825109 17.1045
582 1 6.135 2.045 4.09 -0.841059 -0.844297 -0.858245 0.00089569 0.00124647 0.000895901 17.1045
585 1 8.18 -2.76831e-07 4.09 -0.961203 -0.91595 -0.932459 0.00122464 0.00149406 0.00130405 17.1045
633 1 8.18 4.09 4.09 -0.973623 -0.950107 -0.94293 0.00740977 0.012982 0.00825125 17.1045
10 1 10.225 2.045 -2.77174e-07 -0.834291 -0.825229 -0.815558 0.00949617 -0.0145301 -0.0125047 17.1045
11 1 10.225 -2.76822e-07 2.045 -0.866174 -0.852559 -0.853952 0.00148079 -1.59371e-07 5.30297e-08 17.1045
13 1 12.27 -2.76572e-07 -2.77174e-07 -0.999745 -0.925649 -0.920531 0.00949638 -0.0125047 -0.0145303 17.1045
16 1 12.27 2.045 2.045 -1.01511 -0.945571 -0.933496 0.00916658 -3.02233e-08 -1.03049e-07 17.1045
59 1 10.225 4.09 2.045 -0.870324 -0.878016 -0.850622 0.00817861 -1.5179e-07 1.31039e-08 17.1045
61 1 12.27 4.09 -2.80113e-07 -0.803229 -0.762926 -0.674029 0.0528015 -0.11014 -0.0939414 17.1045
586 1 10.225 2.045 4.09 -0.873986 -0.864924 -0.872263 0.00949617 0.0145303 0.0125048 17.1045
589 1 12.27 -2.76572e-07 4.09 -1.03944 -0.965343 -0.977236 0.00949637 0.0125048 0.0145303 17.1045
637 1 12.27 4.09 4.09 -0.842924 -0.802621 -0.730735 0.0528016 0.11014 0.0939415 17.1045
14 1 14.315 2.045 -2.80113e-07 -0.775833 -0.708638 -0.64898 0.0528014 -0.0939414 -0.11014 17.1045
15 1 14.315 -2.76557e-07 2.045 -0.995895 -0.936633 -0.930546 0.00817858 -4.32252e-08 4.91497e-08 17.1045
17 1 16.36 -2.74666e-07 -2.79367e-07 -0.982416 -0.843201 -0.810304 0.042014 -0.0620224 -0.100888 17.1045
20 1 16.36 2.045 2.045 -0.976331 -0.850176 -0.778287 0.0342335 1.50312e-08 -7.26306e-08 17.1045
63 1 14.315 4.09 2.045 -0.81042 -0.772464 -0.663947 0.0379911 -1.60931e-08 3.93547e-08 17.1045
65 1 16.36 4.09 -3.01417e-07 0.175929 0.339167 0.781335 0.188138 -0.523719 -0.619281 17.1045
590 1 14.315 2.045 4.09 -0.815527 -0.748333 -0.705686 0.0528015 0.0939414 0.11014 17.1045
593 1 16.36 -2.74666e-07 4.09 -1.02211 -0.882896 -0.86701 0.042014 0.0620224 0.100888 17.1045
641 1 16.36 4.09 4.09 0.136234 0.299472 0.724629 0.188138 0.523719 0.619281 17.1045
18 1 18.405 2.045 -2.96151e-07 -0.132317 0.1597 0.44186 0.153203 -0.348202 -0.583179 17.1045
19 1 18.405 -2.75165e-07 2.045 -1.05648 -0.91534 -0.875734 0.0247605 5.72855e-09 7.10509e-08 17.1045
21 1 20.45 -2.66772e-07 -2.8851e-07 -0.545449 -0.223093 -0.0896613 0.0988516 -0.174558 -0.432266 17.1045
24 1 20.45 2.045 2.045 -0.533187 -0.272178 -0.015336 0.0613702 5.33265e-08 4.04185e-08 17.1045
67 1 18.405 4.09 2.045 -0.265436 -0.0782183 0.332308 0.0817321 1.10816e-07 1.78241e-07 17.1045
69 1 20.45 4.09 -3.80134e-07 2.94555 3.70134 5.16557 0.284761 -1.3059 -2.27706 17.1045
594 1 18.405 2.045 4.09 -0.172012 0.120005 0.385154 0.153204 0.348202 0.583179 17.1045
597 1 20.45 -2.66772e-07 4.09 -0.585144 -0.262788 -0.146367 0.0988516 0.174558 0.432266 17.1045
645 1 20.45 4.09 4.09 2.90585 3.66165 5.10886 0.284761 1.3059 2.27706 17.1045
22 1 22.495 2.045 -3.4227e-07 1.5327 2.43546 3.25728 0.194597 -0.666721 -1.79972 17.1045
23 1 22.495 -2.71256e-07 2.045 -0.824802 -0.570426 -0.446105 0.036273 2.277e-08 1.48672e-07 17.1045
25 1 24.54 -2.50296e-07 -3.07648e-07 0.206307 0.956052 1.28392 0.100005 -0.226142 -1.10267 17.1045
28 1 24.54 2.045 2.045 0.130533 0.634732 1.17023 0.0445028 6.81258e-08 2.65448e-07 17.1045
71 1 22.495 4.09 2.045 0.944229 1.41658 2.36443 0.0748251 2.04655e-07 5.0812e-07 17.1045
73 1 24.54 4.09 -5.13119e-07 6.27594 7.87636 10.532 0.16123 -1.31013 -4.30397 17.1045
598 1 22.495 2.045 4.09 1.49301 2.39576 3.20057 0.194597 0.66672 1.79972 17.1045
601 1 24.54 -2.50296e-07 4.09 0.166612 0.916357 1.22721 0.100005 0.226142 1.10267 17.1045
649 1 24.54 4.09 4.09 6.23624 7.83667 10.4753 0.16123 1.31013 4.30396 17.1045
26 1 26.585 2.045 -3.99676e-07 3.12186 4.72125 6.07248 0.0711695 -0.398255 -3.0652 17.1045
27 1 26.585 -2.66505e-07 2.045 -0.571458 -0.17119 0.052336 0.0178217 1.73455e-08 2.57855e-07 17.1045
29 1 28.63 -2.39824e-07 -3.1983e-07 0.634537 1.67425 2.12854 2.39752e-09 -3.02148e-09 -1.53063 17.1045
32 1 28.63 2.045 2.045 0.481498 1.1291 1.80647 5.756e-09 -2.14287e-09 4.04567e-07 17.1045
75 1 26.585 4.09 2.045 1.91245 2.58992 3.91072 0.0266258 1.2163e-07 7.8716e-07 17.1045
77 1 28.63 4.09 -5.86481e-07 7.65175 9.1581 12.0228 -2.3541e-09 -8.88831e-09 -4.66499 17.1045
602 1 26.585 2.045 4.09 3.08216 4.68155 6.01577 0.0711696 0.398255 3.0652 17.1045
605 1 28.63 -2.39824e-07 4.09 0.594842 1.63455 2.07183 -1.01482e-08 -2.86244e-09 1.53063 17.1045
653 1 28.63 4.09 4.09 7.61205 9.1184 11.966 6.78991e-09 -8.11009e-09 4.66499 17.1045
30 1 30.675 2.045 -3.99676e-07 3.16062 4.75457 6.1058 -0.0711695 0.398255 -3.0652 17.1045
31 1 30.675 -2.66505e-07 2.045 -0.532693 -0.137871 0.0856542 -0.0178217 -4.33541e-09 2.5104e-07 17.1045
33 1 32.72 -2.50296e-07 -3.07648e-07 0.403632 1.09897 1.42684 -0.100005 0.226142 -1.10267 17.1045
36 1 32.72 2.045 2.045 0.327858 0.777653 1.31315 -0.0445027 -2.40345e-08 2.59385e-07 17.1045
79 1 30.675 4.09 2.045 1.95122 2.62324 3.94403 -0.0266258 -1.17998e-07 7.93902e-07 17.1045
81 1 32.72 4.09 -5.13119e-07 6.47326 8.01929 10.6749 -0.16123 1.31013 -4.30397 17.1045
606 1 30.675 2.045 4.09 3.12093 4.71487 6.04909 -0.0711696 -0.398255 3.0652 17.1045
609 1 32.72 -2.50296e-07 4.09 0.363937 1.05928 1.37013 -0.100005 -0.226142 1.10267 17.1045
657 1 32.72 4.09 4.09 6.43357 7.97959 10.6182 -0.161231 -1.31013 4.30396 17.1045
34 1 34.765 2.045 -3.42269e-07 1.71589 2.5813 3.40313 -0.194597 0.66672 -1.79972 17.1045
35 1 34.765 -2.71256e-07 2.045 -0.641616 -0.424579 -0.300259 -0.0362731 2.81407e-10 1.62902e-07 17.1045
37 1 36.81 -2.66772e-07 -2.8851e-07 -0.189621 0.0373954 0.170827 -0.0988517 0.174558 -0.432266 17.1045
40 1 36.81 2.045 2.045 -0.177359 -0.0116894 0.245153 -0.06137 9.67483e-08 3.72854e-08 17.1045
83 1 34.765 4.09 2.045 1.12742 1.56242 2.51027 -0.0748251 -1.74006e-07 5.04256e-07 17.1045
85 1 36.81 4.09 -3.80134e-07 3.30137 3.96183 5.42606 -0.284761 1.3059 -2.27706 17.1045
610 1 34.765 2.045 4.09 1.67619 2.54161 3.34642 -0.194597 -0.66672 1.79972 17.1045
613 1 36.81 -2.66772e-07 4.09 -0.229316 -0.00229949 0.114122 -0.0988517 -0.174558 0.432266 17.1045
661 1 36.81 4.09 4.09 3.26168 3.92213 5.36935 -0.284761 -1.3059 2.27706 17.1045
38 1 38.855 2.045 -2.96151e-07 0.141657 0.375225 0.657384 -0.153203 0.348202 -0.583179 17.1045
39 1 38.855 -2.75165e-07 2.045 -0.782505 -0.699815 -0.660209 -0.0247606 4.69318e-08 8.54034e-08 17.1045
41 1 40.9 -2.74666e-07 -2.79367e-07 -0.598593 -0.563062 -0.530165 -0.0420141 0.0620223 -0.100888 17.1045
44 1 40.9 2.045 2.045 -0.592509 -0.570038 -0.498148 -0.0342333 1.91664e-07 -7.67221e-08 17.1045
87 1 38.855 4.09 2.045 0.00853751 0.137307 0.547833 -0.0817323 -4.68177e-08 1.81381e-07 17.1045
89 1 40.9 4.09 -3.01417e-07 0.559751 0.619306 1.06147 -0.188138 0.523719 -0.619281 17.1045
614 1 38.855 2.045 4.09 0.101962 0.33553 0.600678 -0.153203 -0.348202 0.583179 17.1045
617 1 40.9 -2.74666e-07 4.09 -0.638288 -0.602757 -0.586871 -0.0420142 -0.0620225 0.100888 17.1045
665 1 40.9 4.09 4.09 0.520056 0.579611 1.00477 -0.188138 -0.523719 0.619281 17.1045
42 1 42.945 2.045 -2.80113e-07 -0.58204 -0.552801 -0.493143 -0.0528015 0.0939414 -0.11014 17.1045
43 1 42.945 -2.76557e-07 2.045 -0.802103 -0.780796 -0.774709 -0.0081786 -6.28129e-09 6.90164e-08 17.1045
45 1 44.99 -2.76571e-07 -2.77173e-07 -0.749316 -0.744763 -0.739645 -0.00949639 0.0125047 -0.0145303 17.1045
48 1 44.99 2.045 2.045 -0.764686 -0.764686 -0.752611 -0.00916651 1.08559e-07 -1.15469e-07 17.1045
91 1 42.945 4.09 2.045 -0.616627 -0.616627 -0.508109 -0.0379911 -4.67774e-08 4.4238e-08 17.1045
93 1 44.99 4.09 -2.80113e-07 -0.552801 -0.58204 -0.493143 -0.0528015 0.11014 -0.0939414 17.1045
618 1 42.945 2.045 4.09 -0.621735 -0.592495 -0.549849 -0.0528015 -0.0939415 0.11014 17.1045
621 1 44.99 -2.76571e-07 4.09 -0.789011 -0.784458 -0.79635 -0.00949638 -0.0125048 0.0145303 17.1045
669 1 44.99 4.09 4.09 -0.592495 -0.621735 -0.549849 -0.0528015 -0.11014 0.0939415 17.1045
46 1 47.035 2.045 -2.77173e-07 -0.744763 -0.749316 -0.739645 -0.00949638 0.0145303 -0.0125047 17.1045
47 1 47.035 -2.76822e-07 2.045 -0.776646 -0.776646 -0.778039 -0.00148062 -5.50308e-08 6.08118e-08 17.1045
95 1 47.035 4.09 2.045 -0.780796 -0.802103 -0.774709 -0.00817862 -5.71431e-08 5.42317e-10 17.1045
622 1 47.035 2.045 4.09 -0.784458 -0.789011 -0.79635 -0.00949637 -0.0145303 0.0125048 17.1045
50 1 2.045 6.135 -2.76996e-07 -0.786098 -0.788906 -0.78361 -0.00422164 0.00846272 -0.00422127 17.1045
52 1 -2.77073e-07 6.135 2.045 -0.774073 -0.780118 -0.772224 -0.00573672 5.42081e-08 -2.10391e-07 17.1045
56 1 4.09 6.135 2.045 -0.857368 -0.841462 -0.842845 7.31583e-08 7.30237e-09 -2.11079e-07 17.1045
97 1 -2.78273e-07 8.18 -2.78324e-07 -0.725257 -0.809122 -0.713713 -0.025924 0.0712722 -0.0307637 17.1045
99 1 2.045 8.18 2.045 -0.886822 -0.935413 -0.885586 -0.00291605 -1.16584e-07 -5.70559e-08 17.1045
101 1 4.09 8.18 -2.7697e-07 -0.916362 -0.951665 -0.900587 1.37685e-07 5.35411e-08 -0.00291586 17.1045
626 1 2.045 6.135 4.09 -0.825793 -0.8286 -0.840316 -0.00422165 -0.00846266 0.00422151 17.1045
673 1 -2.78273e-07 8.18 4.09 -0.764952 -0.848816 -0.770419 -0.025924 -0.0712722 0.0307639 17.1045
677 1 4.09 8.18 4.09 -0.956056 -0.99136 -0.957293 1.42699e-07 1.10884e-07 0.00291613 17.1045
54 1 6.135 6.135 -2.76996e-07 -0.794659 -0.800129 -0.794834 0.00422123 -0.00846251 -0.00422127 17.1045
60 1 8.18 6.135 2.045 -0.92923 -0.889794 -0.881901 0.00573688 -5.63507e-08 -2.14692e-07 17.1045
103 1 6.135 8.18 2.045 -0.895383 -0.946636 -0.896809 0.00291599 -2.04806e-07 -6.11019e-08 17.1045
105 1 8.18 8.18 -2.78324e-07 -0.880415 -0.918798 -0.82339 0.0259242 -0.0712721 -0.0307637 17.1045
630 1 6.135 6.135 4.09 -0.834354 -0.839824 -0.85154 0.00422124 0.00846274 0.00422151 17.1045
681 1 8.18 8.18 4.09 -0.920109 -0.958493 -0.880096 0.0259242 0.0712724 0.030764 17.1045
58 1 10.225 6.135 -2.79367e-07 -0.65259 -0.674506 -0.606078 0.0420139 -0.100888 -0.0620223 17.1045
64 1 12.27 6.135 2.045 -0.820466 -0.773395 -0.679034 0.0342335 3.10945e-09 -1.89957e-07 17.1045
107 1 10.225 8.18 2.045 -0.789343 -0.858418 -0.736122 0.0247605 -1.19629e-07 -5.0703e-08 17.1045
109 1 12.27 8.18 -2.96151e-07 0.124796 -0.0392292 0.476498 0.153203 -0.583179 -0.348202 17.1045
634 1 10.225 6.135 4.09 -0.692284 -0.714201 -0.662784 0.0420139 0.100888 0.0620225 17.1045
685 1 12.27 8.18 4.09 0.0851009 -0.0789242 0.419792 0.153204 0.583179 0.348202 17.1045
62 1 14.315 6.135 -3.01417e-07 0.425514 0.403914 0.905638 0.188138 -0.619282 -0.523719 17.1045
68 1 16.36 6.135 2.045 -0.0781133 0.0255699 0.512632 0.089527 1.50726e-07 -4.82141e-08 17.1045
111 1 14.315 8.18 2.045 -0.0564857 -0.1473 0.391996 0.0817321 1.28039e-07 5.69989e-08 17.1045
113 1 16.36 8.18 -4.05035e-07 4.21806 4.01835 6.31966 0.338709 -2.32744 -1.94493 17.1045
638 1 14.315 6.135 4.09 0.385819 0.364219 0.848932 0.188138 0.619281 0.523719 17.1045
689 1 16.36 8.18 4.09 4.17837 3.97866 6.26295 0.338709 2.32743 1.94492 17.1045
66 1 18.405 6.135 -4.05035e-07 4.02452 4.38636 6.38427 0.338709 -1.94493 -2.32744 17.1045
72 1 20.45 6.135 2.045 1.67952 2.01847 3.31907 0.0984473 3.52709e-07 3.39799e-07 17.1045
115 1 18.405 8.18 2.045 1.96369 2.02214 3.59288 0.107373 4.85016e-07 4.2021e-07 17.1045
117 1 20.45 8.18 -6.92585e-07 11.0932 11.5476 16.4988 0.307185 -3.75881 -4.6402 17.1045
642 1 18.405 6.135 4.09 3.98482 4.34667 6.32757 0.338709 1.94492 2.32743 17.1045
693 1 20.45 8.18 4.09 11.0535 11.5079 16.4421 0.307186 3.75881 4.6402 17.1045
70 1 22.495 6.135 -6.24269e-07 9.25793 10.4587 14.4025 0.252127 -2.5312 -4.87686 17.1045
76 1 24.54 6.135 2.045 3.42152 4.01254 5.97873 0.0674679 3.32213e-07 7.31504e-07 17.1045
119 1 22.495 8.18 2.045 4.4731 4.79889 7.33148 0.100016 5.75277e-07 8.8808e-07 17.1045
121 1 24.54 8.18 -9.88482e-07 15.4727 15.9758 21.4439 0.296436 -1.94192 -5.04347 17.1045
646 1 22.495 6.135 4.09 9.21824 10.419 14.3458 0.252128 2.53119 4.87686 17.1045
697 1 24.54 8.18 4.09 15.433 15.9361 21.3872 0.296436 1.94191 5.04347 17.1045
74 1 26.585 6.135 -8.01048e-07 12.0971 13.1321 17.5007 0.152984 -0.864486 -5.29086 17.1045
80 1 28.63 6.135 2.045 4.05955 4.68133 6.85016 1.75376e-09 5.21959e-09 7.96264e-07 17.1045
123 1 26.585 8.18 2.045 5.90223 6.38359 9.44168 0.0459397 2.00694e-07 1.05076e-06 17.1045
125 1 28.63 8.18 -1.08603e-06 16.9202 17.7139 23.806 8.03227e-10 1.47166e-08 -5.50658 17.1045
650 1 26.585 6.135 4.09 12.0574 13.0924 17.444 0.152984 0.864485 5.29085 17.1045
701 1 28.63 8.18 4.09 16.8805 17.6742 23.7493 5.8505e-09 -1.78822e-08 5.50657 17.1045
78 1 30.675 6.135 -8.01048e-07 12.1358 13.1654 17.534 -0.152984 0.864486 -5.29086 17.1045
84 1 32.72 6.135 2.045 3.61885 4.15546 6.12165 -0.0674679 -2.81038e-07 7.35886e-07 17.1045
127 1 30.675 8.18 2.045 5.94099 6.41691 9.475 -0.0459397 -2.00316e-07 1.05221e-06 17.1045
129 1 32.72 8.18 -9.88482e-07 15.67 16.1187 21.5869 -0.296436 1.94192 -5.04347 17.1045
654 1 30.675 6.135 4.09 12.0961 13.1257 17.4773 -0.152984 -0.864485 5.29085 17.1045
705 1 32.72 8.18 4.09 15.6303 16.079 21.5301 -0.296436 -1.94192 5.04347 17.1045
82 1 34.765 6.135 -6.24269e-07 9.44112 10.6046 14.5484 -0.252127 2.53119 -4.87686 17.1045
88 1 36.81 6.135 2.045 2.03534 2.27896 3.57956 -0.0984472 -1.90525e-07 3.3891e-07 17.1045
131 1 34.765 8.18 2.045 4.65629 4.94474 7.47733 -0.100016 -5.61056e-07 8.9132e-07 17.1045
133 1 36.81 8.18 -6.92585e-07 11.449 11.8081 16.7593 -0.307185 3.75881 -4.6402 17.1045
658 1 34.765 6.135 4.09 9.40142 10.5649 14.4917 -0.252128 -2.53119 4.87686 17.1045
709 1 36.81 8.18 4.09 11.4093 11.7684 16.7026 -0.307186 -3.75881 4.6402 17.1045
86 1 38.855 6.135 -4.05035e-07 4.29849 4.60189 6.5998 -0.338709 1.94492 -2.32744 17.1045
92 1 40.9 6.135 2.045 0.305709 0.305709 0.792771 -0.0895268 6.75424e-08 -5.95104e-08 17.1045
135 1 38.855 8.18 2.045 2.23766 2.23766 3.8084 -0.107373 -4.28174e-07 4.2033e-07 17.1045
137 1 40.9 8.18 -4.05035e-07 4.60189 4.29849 6.5998 -0.338709 2.32744 -1.94492 17.1045
662 1 38.855 6.135 4.09 4.2588 4.56219 6.54309 -0.338709 -1.94492 2.32743 17.1045
713 1 40.9 8.18 4.09 4.56219 4.2588 6.54309 -0.338709 -2.32743 1.94492 17.1045
90 1 42.945 6.135 -3.01417e-07 0.619306 0.559751 1.06147 -0.188138 0.619281 -0.523719 17.1045
96 1 44.99 6.135 2.045 -0.570038 -0.592509 -0.498148 -0.0342333 8.18361e-08 -1.80426e-07 17.1045
139 1 42.945 8.18 2.045 0.137307 0.00853751 0.547833 -0.0817323 -1.88103e-07 3.72333e-08 17.1045
141 1 44.99 8.18 -2.96151e-07 0.375225 0.141657 0.657384 -0.153203 0.583179 -0.348202 17.1045
666 1 42.945 6.135 4.09 0.579611 0.520057 1.00477 -0.188138 -0.619281 0.523719 17.1045
717 1 44.99 8.18 4.09 0.33553 0.101962 0.600678 -0.153203 -0.583179 0.348202 17.1045
94 1 47.035 6.135 -2.79367e-07 -0.563062 -0.598593 -0.530165 -0.0420141 0.100888 -0.0620223 17.1045
143 1 47.035 8.18 2.045 -0.699815 -0.782505 -0.660209 -0.0247606 -9.81438e-08 -4.92328e-08 17.1045
670 1 47.035 6.135 4.09 -0.602757 -0.638288 -0.586871 -0.0420142 -0.100888 0.0620225 17.1045
98 1 2.045 10.225 -2.77503e-07 -0.777115 -0.816152 -0.774627 -0.0112354 0.0361706 -0.0112352 17.1045
100 1 -2.77824e-07 10.225 2.045 -0.740726 -0.78726 -0.725788 -0.0138025 4.86717e-08 -1.57931e-07 17.1045
104 1 4.09 10.225 2.045 -0.898366 -0.900959 -0.883842 6.43968e-08 8.72229e-09 -1.51509e-07 17.1045
145 1 -2.81842e-07 12.27 -2.82042e-07 -0.485011 -0.712771 -0.447014 -0.04703 0.242005 -0.0609614 17.1045
147 1 2.045 12.27 2.045 -0.931871 -1.02201 -0.927913 -0.00520701 -1.17941e-07 -3.02638e-08 17.1045
149 1 4.09 12.27 -2.77241e-07 -0.958689 -1.03826 -0.945636 5.71625e-08 5.91637e-08 -0.00520693 17.1045
674 1 2.045 10.225 4.09 -0.816809 -0.855847 -0.831333 -0.0112354 -0.0361705 0.0112354 17.1045
721 1 -2.81842e-07 12.27 4.09 -0.524705 -0.752465 -0.50372 -0.04703 -0.242005 0.0609615 17.1045
725 1 4.09 12.27 4.09 -0.998384 -1.07795 -1.00234 5.32882e-08 1.02291e-07 0.00520704 17.1045
102 1 6.135 10.225 -2.77503e-07 -0.785676 -0.827375 -0.785851 0.0112352 -0.0361704 -0.0112352 17.1045
108 1 8.18 10.225 2.045 -0.895883 -0.896936 -0.835464 0.0138027 -4.0832e-08 -1.48563e-07 17.1045
151 1 6.135 12.27 2.045 -0.940432 -1.03323 -0.939137 0.00520697 -2.00552e-07 -2.25248e-08 17.1045
153 1 8.18 12.27 -2.82042e-07 -0.640168 -0.822447 -0.556691 0.0470301 -0.242005 -0.0609615 17.1045
678 1 6.135 10.225 4.09 -0.82537 -0.86707 -0.842556 0.0112352 0.0361706 0.0112354 17.1045
729 1 8.18 12.27 4.09 -0.679863 -0.862142 -0.613396 0.0470301 0.242005 0.0609616 17.1045
106 1 10.225 10.225 -2.8851e-07 -0.0521322 -0.265534 0.094915 0.0988515 -0.432266 -0.174558 17.1045
112 1 12.27 10.225 2.045 -0.262118 -0.358245 0.064267 0.0613702 1.22907e-07 -9.15561e-08 17.1045
155 1 10.225 12.27 2.045 -0.514107 -0.717529 -0.376171 0.036273 -4.65666e-08 -7.6258e-09 17.1045
157 1 12.27 12.27 -3.4227e-07 2.33087 1.535 3.22224 0.194597 -1.79972 -0.666721 17.1045
682 1 10.225 10.225 4.09 -0.091827 -0.305228 0.0382091 0.0988515 0.432266 0.174558 17.1045
733 1 12.27 12.27 4.09 2.29118 1.49531 3.16553 0.194597 1.79972 0.66672 17.1045
110 1 14.315 10.225 -3.80135e-07 3.76804 3.14554 5.27022 0.284761 -2.27706 -1.3059 17.1045
116 1 16.36 10.225 2.045 1.89514 1.7552 3.29942 0.0984473 5.30166e-07 2.00291e-07 17.1045
159 1 14.315 12.27 2.045 1.36863 0.971578 2.35444 0.0748251 4.51943e-07 1.62557e-07 17.1045
161 1 16.36 12.27 -6.24269e-07 10.2207 9.16098 14.2682 0.252127 -4.87686 -2.5312 17.1045
686 1 14.315 10.225 4.09 3.72834 3.10584 5.21351 0.284761 2.27706 1.3059 17.1045
737 1 16.36 12.27 4.09 10.181 9.12128 14.2115 0.252128 4.87686 2.53119 17.1045
114 1 18.405 10.225 -6.92585e-07 11.5341 11.2335 16.5438 0.307185 -4.6402 -3.75881 17.1045
120 1 20.45 10.225 2.045 5.01069 5.10603 7.88353 0.11303 8.12054e-07 6.60736e-07 17.1045
163 1 18.405 12.27 2.045 4.67076 4.44076 7.2618 0.100016 9.46042e-07 5.59446e-07 17.1045
165 1 20.45 12.27 -1.0951e-06 17.3624 17.2814 23.4542 0.387616 -4.20876 -3.10518 17.1045
690 1 18.405 10.225 4.09 11.4944 11.1938 16.4871 0.307186 4.6402 3.75881 17.1045
741 1 20.45 12.27 4.09 17.3227 17.2417 23.3975 0.387617 4.20876 3.10518 17.1045
118 1 22.495 10.225 -1.0951e-06 17.3587 17.5724 23.5689 0.387616 -3.10518 -4.20876 17.1045
124 1 24.54 10.225 2.045 7.33324 7.65589 11.3095 0.075539 5.03015e-07 8.72835e-07 17.1045
167 1 22.495 12.27 2.045 7.79463 7.83197 11.8514 0.0874415 8.03471e-07 7.70066e-07 17.1045
169 1 24.54 12.27 -1.46295e-06 22.6717 22.8775 30.8222 0.168175 -2.65618 -3.98461 17.1045
694 1 22.495 10.225 4.09 17.319 17.5327 23.5122 0.387617 3.10518 4.20876 17.1045
745 1 24.54 12.27 4.09 22.632 22.8378 30.7655 0.168175 2.65618 3.9846 17.1045
122 1 26.585 10.225 -1.32844e-06 20.7289 21.2805 28.4498 0.0947711 -1.24931 -4.99071 17.1045
128 1 28.63 10.225 2.045 8.28882 8.72671 12.7641 -3.36609e-09 1.1593e-09 1.01849e-06 17.1045
171 1 26.585 12.27 2.045 9.80194 10.0256 14.8444 0.0265537 3.38299e-07 9.80867e-07 17.1045
173 1 28.63 12.27 -1.61996e-06 24.6574 25.0145 33.3001 7.29019e-09 2.47694e-08 -4.20571 17.1045
698 1 26.585 10.225 4.09 20.6892 21.2408 28.3931 0.0947712 1.24931 4.99071 17.1045
749 1 28.63 12.27 4.09 24.6177 24.9747 33.2434 -4.06061e-09 -1.4825e-08 4.20571 17.1045
126 1 30.675 10.225 -1.32844e-06 20.7677 21.3139 28.4831 -0.0947711 1.24931 -4.99071 17.1045
132 1 32.72 10.225 2.045 7.53057 7.79881 11.4524 -0.0755389 -4.53433e-07 8.64266e-07 17.1045
175 1 30.675 12.27 2.045 9.84071 10.0589 14.8777 -0.0265537 -3.40503e-07 9.68282e-07 17.1045
177 1 32.72 12.27 -1.46295e-06 22.869 23.0204 30.9651 -0.168175 2.65618 -3.98461 17.1045
702 1 30.675 10.225 4.09 20.728 21.2742 28.4264 -0.0947712 -1.24931 4.99071 17.1045
753 1 32.72 12.27 4.09 22.8293 22.9807 30.9084 -0.168175 -2.65618 3.9846 17.1045
130 1 34.765 10.225 -1.0951e-06 17.5419 17.7182 23.7147 -0.387616 3.10518 -4.20876 17.1045
136 1 36.81 10.225 2.045 5.36652 5.36652 8.14402 -0.11303 -6.68344e-07 6.62171e-07 17.1045
179 1 34.765 12.27 2.045 7.97782 7.97782 11.9972 -0.0874415 -7.81862e-07 7.74352e-07 17.1045
181 1 36.81 12.27 -1.0951e-06 17.7182 17.5419 23.7147 -0.387616 4.20876 -3.10518 17.1045
706 1 34.765 10.225 4.09 17.5022 17.6785 23.658 -0.387617 -3.10518 4.20876 17.1045
757 1 36.81 12.27 4.09 17.6785 17.5022 23.658 -0.387617 -4.20876 3.10518 17.1045
134 1 38.855 10.225 -6.92585e-07 11.8081 11.449 16.7593 -0.307185 4.6402 -3.75881 17.1045
140 1 40.9 10.225 2.045 2.27896 2.03534 3.57956 -0.0984472 -3.2535e-07 2.10617e-07 17.1045
183 1 38.855 12.27 2.045 4.94474 4.65629 7.47733 -0.100016 -8.8858e-07 5.43163e-07 17.1045
185 1 40.9 12.27 -6.24269e-07 10.6046 9.44112 14.5484 -0.252127 4.87686 -2.53119 17.1045
710 1 38.855 10.225 4.09 11.7684 11.4093 16.7026 -0.307186 -4.6402 3.75881 17.1045
761 1 40.9 12.27 4.09 10.5649 9.40142 14.4917 -0.252128 -4.87686 2.53119 17.1045
138 1 42.945 10.225 -3.80134e-07 3.96183 3.30137 5.42606 -0.284761 2.27706 -1.3059 17.1045
144 1 44.99 10.225 2.045 -0.0116894 -0.177359 0.245153 -0.06137 -2.34968e-08 -9.54077e-08 17.1045
187 1 42.945 12.27 2.045 1.56242 1.12742 2.51027 -0.0748251 -5.15344e-07 1.634e-07 17.1045
189 1 44.99 12.27 -3.42269e-07 2.5813 1.71589 3.40313 -0.194597 1.79972 -0.66672 17.1045
714 1 42.945 10.225 4.09 3.92213 3.26168 5.36935 -0.284761 -2.27706 1.3059 17.1045
765 1 44.99 12.27 4.09 2.54161 1.67619 3.34642 -0.194597 -1.79972 0.66672 17.1045
142 1 47.035 10.225 -2.8851e-07 0.0373954 -0.189621 0.170827 -0.0988517 0.432266 -0.174558 17.1045
191 1 47.035 12.27 2.045 -0.424579 -0.641616 -0.300259 -0.0362731 -1.57143e-07 7.45209e-10 17.1045
718 1 47.035 10.225 4.09 -0.00229946 -0.229316 0.114122 -0.0988517 -0.432266 0.174558 17.1045
146 1 2.045 14.315 -2.78518e-07 -0.782173 -0.913529 -0.779686 -0.0136537 0.0926806 -0.0136536 17.1045
148 1 -2.79292e-07 14.315 2.045 -0.707392 -0.854607 -0.667102 -0.0149884 3.66872e-09 -3.79594e-08 17.1045
152 1 4.09 14.315 2.045 -0.997219 -1.05073 -0.982696 1.0909e-08 1.55681e-08 -4.92811e-08 17.1045
193 1 -2.86435e-07 16.36 -2.86844e-07 -0.203306 -0.635807 -0.129521 -0.0279696 0.468899 -0.0389433 17.1045
195 1 2.045 16.36 2.045 -0.999215 -1.14043 -0.991831 -0.00305737 -1.25752e-07 3.33184e-09 17.1045
197 1 4.09 16.36 -2.77565e-07 -1.02261 -1.15668 -1.01298 7.31798e-09 5.71209e-08 -0.00305735 17.1045
722 1 2.045 14.315 4.09 -0.821868 -0.953224 -0.836391 -0.0136537 -0.0926805 0.0136537 17.1045
769 1 -2.86435e-07 16.36 4.09 -0.243001 -0.675502 -0.186227 -0.0279696 -0.468898 0.0389433 17.1045
773 1 4.09 16.36 4.09 -1.0623 -1.19638 -1.06969 4.70819e-09 9.81605e-08 0.00305736 17.1045
150 1 6.135 14.315 -2.78518e-07 -0.790734 -0.924753 -0.790909 0.0136536 -0.0926804 -0.0136536 17.1045
156 1 8.18 14.315 2.045 -0.862549 -0.964284 -0.776779 0.0149884 -9.5201e-09 -3.98796e-08 17.1045
199 1 6.135 16.36 2.045 -1.00778 -1.15165 -1.00305 0.00305735 -1.89859e-07 -6.75447e-09 17.1045
201 1 8.18 16.36 -2.86844e-07 -0.358463 -0.745484 -0.239197 0.0279696 -0.468898 -0.0389433 17.1045
726 1 6.135 14.315 4.09 -0.830429 -0.964447 -0.847615 0.0136536 0.0926806 0.0136537 17.1045
777 1 8.18 16.36 4.09 -0.398158 -0.785179 -0.295903 0.0279696 0.468898 0.0389433 17.1045
154 1 10.225 14.315 -3.07648e-07 1.00945 0.32772 1.35093 0.100005 -1.10267 -0.226142 17.1045
160 1 12.27 14.315 2.045 0.527224 0.146972 1.13226 0.0445028 3.33421e-07 2.77551e-08 17.1045
203 1 10.225 16.36 2.045 -0.227399 -0.608606 0.00974182 0.0178217 4.81014e-08 2.94957e-09 17.1045
205 1 12.27 16.36 -3.99676e-07 4.50414 2.97974 5.92491 0.0711695 -3.0652 -0.398255 17.1045
730 1 10.225 14.315 4.09 0.969751 0.288025 1.29422 0.100005 1.10267 0.226142 17.1045
781 1 12.27 16.36 4.09 4.46444 2.94004 5.86821 0.0711696 3.0652 0.398255 17.1045
158 1 14.315 14.315 -5.13119e-07 7.82549 6.31743 10.519 0.16123 -4.30397 -1.31013 17.1045
164 1 16.36 14.315 2.045 3.77164 3.33871 5.84152 0.0674679 9.45373e-07 2.86043e-07 17.1045
207 1 14.315 16.36 2.045 2.42945 1.79538 3.7882 0.0266258 7.40102e-07 1.16616e-07 17.1045
209 1 16.36 16.36 -8.01049e-07 12.7816 11.8557 17.2539 0.152984 -5.29086 -0.864486 17.1045
734 1 14.315 14.315 4.09 7.7858 6.27773 10.4623 0.161231 4.30396 1.31013 17.1045
785 1 16.36 16.36 4.09 12.7419 11.816 17.1972 0.152984 5.29085 0.864485 17.1045
162 1 18.405 14.315 -9.88482e-07 15.8448 15.4545 21.3713 0.296436 -5.04347 -1.94192 17.1045
168 1 20.45 14.315 2.045 7.44298 7.27008 11.1919 0.075539 1.02697e-06 4.56347e-07 17.1045
211 1 18.405 16.36 2.045 6.14293 5.72547 9.25948 0.0459397 1.1053e-06 2.05619e-07 17.1045
213 1 20.45 16.36 -1.32844e-06 20.958 20.5072 28.2226 0.0947711 -4.99071 -1.24931 17.1045
738 1 18.405 14.315 4.09 15.8051 15.4148 21.3146 0.296436 5.04347 1.94192 17.1045
789 1 20.45 16.36 4.09 20.9183 20.4675 28.1659 0.0947712 4.99071 1.24931 17.1045
166 1 22.495 14.315 -1.46295e-06 22.8372 22.7232 30.8193 0.168175 -3.98461 -2.65618 17.1045
172 1 24.54 14.315 2.045 10.4481 10.5025 15.6297 0.038373 7.02988e-07 6.46786e-07 17.1045
215 1 22.495 16.36 2.045 9.87569 9.69486 14.7319 0.0265537 9.9698e-07 3.28927e-07 17.1045
217 1 24.54 16.36 -1.77928e-06 26.8259 26.7184 35.8869 0.0799465 -2.97686 -1.48542 17.1045
742 1 22.495 14.315 4.09 22.7975 22.6835 30.7625 0.168175 3.9846 2.65618 17.1045
793 1 24.54 16.36 4.09 26.7862 26.6787 35.8302 0.0799466 2.97686 1.48541 17.1045
170 1 26.585 14.315 -1.77928e-06 26.8225 26.9899 35.9965 0.0799465 -1.48542 -2.97686 17.1045
176 1 28.63 14.315 2.045 11.5858 11.7247 17.2647 6.04719e-09 -7.44305e-09 7.11517e-07 17.1045
219 1 26.585 16.36 2.045 12.1188 12.1242 18.0104 0.0133559 4.01934e-07 3.8777e-07 17.1045
221 1 28.63 16.36 -1.9466e-06 28.9363 28.9527 38.5853 6.7371e-09 2.88967e-08 -1.56267 17.1045
746 1 26.585 14.315 4.09 26.7828 26.9502 35.9398 0.0799466 1.48541 2.97686 17.1045
797 1 28.63 16.36 4.09 28.8966 28.913 38.5286 -1.58144e-09 -3.08339e-08 1.56267 17.1045
174 1 30.675 14.315 -1.77928e-06 26.8613 27.0232 36.0299 -0.0799465 1.48542 -2.97686 17.1045
180 1 32.72 14.315 2.045 10.6454 10.6454 15.7726 -0.038373 -6.46304e-07 6.56378e-07 17.1045
223 1 30.675 16.36 2.045 12.1576 12.1576 18.0437 -0.0133559 -3.98218e-07 3.80272e-07 17.1045
225 1 32.72 16.36 -1.77928e-06 27.0232 26.8613 36.0299 -0.0799465 2.97686 -1.48542 17.1045
750 1 30.675 14.315 4.09 26.8216 26.9835 35.9731 -0.0799466 -1.48541 2.97686 17.1045
801 1 32.72 16.36 4.09 26.9835 26.8216 35.9731 -0.0799466 -2.97686 1.48541 17.1045
178 1 34.765 14.315 -1.46295e-06 23.0204 22.869 30.9651 -0.168175 3.98461 -2.65618 17.1045
184 1 36.81 14.315 2.045 7.79881 7.53057 11.4524 -0.0755389 -8.67274e-07 4.61316e-07 17.1045
227 1 34.765 16.36 2.045 10.0589 9.84071 14.8777 -0.0265537 -9.87698e-07 3.28116e-07 17.1045
229 1 36.81 16.36 -1.32844e-06 21.3139 20.7677 28.4831 -0.0947711 4.99071 -1.24931 17.1045
754 1 34.765 14.315 4.09 22.9807 22.8293 30.9084 -0.168175 -3.9846 2.65618 17.1045
805 1 36.81 16.36 4.09 21.2742 20.728 28.4264 -0.0947712 -4.99071 1.24931 17.1045
182 1 38.855 14.315 -9.88482e-07 16.1187 15.67 21.5869 -0.296436 5.04347 -1.94192 17.1045
188 1 40.9 14.315 2.045 4.15546 3.61885 6.12165 -0.0674679 -7.2264e-07 2.72743e-07 17.1045
231 1 38.855 16.36 2.045 6.41691 5.94099 9.475 -0.0459398 -1.07544e-06 2.05687e-07 17.1045
233 1 40.9 16.36 -8.01048e-07 13.1654 12.1358 17.534 -0.152984 5.29086 -0.864486 17.1045
758 1 38.855 14.315 4.09 16.079 15.6303 21.5301 -0.296436 -5.04347 1.94192 17.1045
809 1 40.9 16.36 4.09 13.1257 12.0961 17.4773 -0.152984 -5.29085 0.864485 17.1045
186 1 42.945 14.315 -5.13119e-07 8.01929 6.47326 10.6749 -0.16123 4.30397 -1.31013 17.1045
192 1 44.99 14.315 2.045 0.777653 0.327858 1.31315 -0.0445027 -2.46374e-07 2.84209e-08 17.1045