ITEM: TIMESTEP
0
ITEM: NUMBER OF ATOMS
6912
ITEM: BOX BOUNDS pp pp pp
0.0000000000000000e+00 4.3380000338459396e+01
0.0000000000000000e+00 4.3380000338459396e+01
0.0000000000000000e+00 4.3380000338459396e+01
ITEM: ATOMS id type x y z c_stress[1] c_stress[2] c_stress[3] c_stress[4] c_stress[5] c_stress[6] c_voro[1]
1 1 0 0 0 0.00020786 0.00020786 0.00020786 9.33856e-10 9.67208e-10 9.56091e-10 11.8104
2 1 1.8075 1.8075 0 0.000207881 0.000207881 0.000207876 8.338e-12 -8.89387e-11 -3.3352e-11 11.8104
3 1 1.8075 0 1.8075 0.000207881 0.000207875 0.000207881 -8.89387e-11 -2.5014e-11 -2.22347e-11 11.8104
4 1 0 1.8075 1.8075 0.000207876 0.000207881 0.000207881 -4.44693e-11 -2.22347e-11 4.169e-12 11.8104
5 1 3.615 0 0 0.00020787 0.000207868 0.000207868 4.44693e-11 2.77933e-11 9.72767e-10 11.8104
8 1 3.615 1.8075 1.8075 0.000207888 0.00020789 0.00020789 1.94553e-11 8.338e-12 -3.47417e-11 11.8104
49 1 0 3.615 0 0.000207868 0.00020787 0.000207868 2.22347e-11 1.11173e-09 -6.6704e-11 11.8104
51 1 1.8075 3.615 1.8075 0.00020789 0.000207888 0.000207891 3.11285e-10 -7.64317e-11 1.38967e-11 11.8104
53 1 3.615 3.615 0 0.000207879 0.000207879 0.000207876 4.44693e-11 3.3352e-11 -6.11453e-11 11.8104
577 1 0 0 3.615 0.000207868 0.000207868 0.00020787 1.06726e-09 -1.44525e-10 -1.11173e-11 11.8104
578 1 1.8075 1.8075 3.615 0.00020789 0.00020789 0.000207888 -1.38967e-11 3.11285e-10 3.05727e-10 11.8104
581 1 3.615 0 3.615 0.000207879 0.000207876 0.000207879 2.5014e-11 1.16732e-10 1.11173e-11 11.8104
625 1 0 3.615 3.615 0.000207876 0.000207879 0.000207879 6.6704e-11 6.6704e-11 1.11173e-10 11.8104
629 1 3.615 3.615 3.615 0.000207888 0.000207888 0.000207888 -8.338e-12 1.6676e-11 7.22627e-11 11.8104
6 1 5.4225 1.8075 0 0.00020788 0.000207882 0.000207876 -1.11173e-11 1.11173e-11 -1.11173e-11 11.8104
7 1 5.4225 0 1.8075 0.000207879 0.000207875 0.000207881 -0 -3.3352e-11 -4.44693e-11 11.8104
9 1 7.23 0 0 0.000207871 0.000207868 0.000207868 -4.44693e-11 5.55867e-12 1.01724e-09 11.8104
12 1 7.23 1.8075 1.8075 0.000207888 0.00020789 0.000207891 1.11173e-11 7.22627e-11 -6.94833e-12 11.8104
55 1 5.4225 3.615 1.8075 0.000207888 0.000207888 0.000207891 1.6676e-11 2.22347e-11 -3.61313e-11 11.8104
57 1 7.23 3.615 0 0.00020788 0.00020788 0.000207876 6.6704e-11 3.3352e-11 -2.77933e-11 11.8104
582 1 5.4225 1.8075 3.615 0.000207888 0.00020789 0.000207888 6.80937e-11 2.77933e-12 1.6676e-10 11.8104
585 1 7.23 0 3.615 0.00020788 0.000207876 0.000207879 8.338e-12 9.72767e-12 6.6704e-11 11.8104
633 1 7.23 3.615 3.615 0.000207889 0.000207888 0.000207888 -3.61313e-11 -5.55867e-12 -1.11173e-11 11.8104
10 1 9.0375 1.8075 0 0.000207879 0.000207881 0.000207875 5.0028e-11 5.55867e-12 -5.55867e-11 11.8104
11 1 9.0375 0 1.8075 0.000207879 0.000207875 0.000207881 5.55867e-12 5.55867e-11 -3.3352e-11 11.8104
13 1 10.845 0 0 0.00020787 0.000207868 0.000207868 4.30797e-11 -6.94833e-12 9.78325e-10 11.8104
14 1 12.6525 1.8075 0 0.00020788 0.000207881 0.000207875 2.77933e-11 6.39247e-11 -5.55867e-11 11.8104
15 1 12.6525 0 1.8075 0.00020788 0.000207875 0.000207881 4.169e-11 2.22347e-11 -3.3352e-11 11.8104
16 1 10.845 1.8075 1.8075 0.000207888 0.00020789 0.000207891 1.80657e-11 -2.64037e-11 -4.03003e-11 11.8104
59 1 9.0375 3.615 1.8075 0.000207888 0.000207888 0.000207891 1.11173e-11 -6.11453e-11 -6.94833e-11 11.8104
61 1 10.845 3.615 0 0.000207879 0.000207879 0.000207876 -1.94553e-11 -1.11173e-11 -5.28073e-11 11.8104
63 1 12.6525 3.615 1.8075 0.000207889 0.000207888 0.000207891 -4.169e-11 1.11173e-11 -1.6676e-11 11.8104
586 1 9.0375 1.8075 3.615 0.000207888 0.00020789 0.000207888 -3.47417e-11 -5.55867e-12 2.11229e-10 11.8104
589 1 10.845 0 3.615 0.000207879 0.000207876 0.000207879 2.22347e-11 -7.5042e-11 8.19903e-11 11.8104
590 1 12.6525 1.8075 3.615 0.000207889 0.00020789 0.000207888 1.00056e-10 2.22347e-11 2.89051e-10 11.8104
637 1 10.845 3.615 3.615 0.000207888 0.000207888 0.000207888 -2.77933e-11 -2.22347e-11 4.44693e-11 11.8104
17 1 14.46 0 0 0.000207859 0.000207861 0.000207861 -1.0895e-09 -1.12007e-09 1.03113e-09 11.8104
18 1 16.2675 1.8075 0 0.000207872 0.000207876 0.000207874 4.44693e-11 -1.22291e-09 -0 11.8104
19 1 16.2675 0 1.8075 0.000207872 0.000207874 0.000207876 -1.14231e-09 3.3352e-11 -8.89387e-11 11.8104
20 1 14.46 1.8075 1.8075 0.000207874 0.000207882 0.000207882 -7.36523e-11 -9.72767e-11 5.55867e-11 11.8104
65 1 14.46 3.615 0 0.000207866 0.00020787 0.000207868 -1.80657e-11 -1.22291e-09 -2.5014e-11 11.8104
67 1 16.2675 3.615 1.8075 0.000207877 0.000207882 0.000207885 2.77933e-12 -1.6676e-11 1.11173e-11 11.8104
593 1 14.46 0 3.615 0.000207866 0.000207868 0.00020787 -1.20901e-09 -1.2507e-11 4.44693e-11 11.8104
594 1 16.2675 1.8075 3.615 0.000207877 0.000207884 0.000207882 4.5859e-11 -3.05727e-11 2.77933e-10 11.8104
641 1 14.46 3.615 3.615 0.000207873 0.000207879 0.000207879 1.11173e-11 -3.3352e-11 5.55867e-11 11.8104
21 1 18.075 0 0 0.000207888 0.000207879 0.000207879 6.94833e-12 -4.03003e-11 1.3313e-09 11.8104
22 1 19.8825 1.8075 0 0.000207873 0.000207876 0.000207874 -7.78213e-11 1.19789e-09 7.78213e-11 11.8104
23 1 19.8825 0 1.8075 0.000207873 0.000207873 0.000207876 1.13675e-09 -2.77933e-11 -0 11.8104
24 1 18.075 1.8075 1.8075 0.000207896 0.000207896 0.000207896 8.19903e-11 3.19623e-11 -9.03283e-11 11.8104
69 1 18.075 3.615 0 0.000207892 0.000207885 0.000207887 -1.11173e-11 2.77933e-11 4.72487e-11 11.8104
71 1 19.8825 3.615 1.8075 0.000207878 0.000207883 0.000207885 -2.77933e-12 -1.11173e-11 1.11173e-11 11.8104
597 1 18.075 0 3.615 0.000207892 0.000207887 0.000207885 2.22347e-11 4.169e-11 -4.169e-12 11.8104
598 1 19.8825 1.8075 3.615 0.000207878 0.000207884 0.000207882 -3.61313e-11 1.38967e-11 1.77877e-10 11.8104
645 1 18.075 3.615 3.615 0.000207895 0.000207893 0.000207893 2.77933e-11 -3.89107e-11 5.8366e-11 11.8104
25 1 21.69 0 0 0.000207847 0.000207853 0.000207853 8.338e-12 -1.52863e-11 1.01724e-09 11.8104
26 1 23.4975 1.8075 0 0.000207873 0.000207876 0.000207874 1.08394e-10 -1.15064e-09 4.44693e-11 11.8104
27 1 23.4975 0 1.8075 0.000207873 0.000207873 0.000207875 -1.11451e-09 3.3352e-11 2.22347e-11 11.8104
28 1 21.69 1.8075 1.8075 0.000207859 0.000207873 0.000207873 -5.55867e-12 -5.55867e-12 7.36523e-11 11.8104
29 1 25.305 0 0 0.000207888 0.000207879 0.000207879 4.72487e-11 9.72767e-12 1.35076e-09 11.8104
32 1 25.305 1.8075 1.8075 0.000207896 0.000207896 0.000207896 1.6676e-11 7.78213e-11 -7.0873e-11 11.8104
73 1 21.69 3.615 0 0.000207853 0.000207862 0.000207861 1.6676e-11 4.169e-11 -2.36243e-11 11.8104
75 1 23.4975 3.615 1.8075 0.000207878 0.000207882 0.000207884 2.77933e-12 6.11453e-11 2.64037e-11 11.8104
77 1 25.305 3.615 0 0.000207892 0.000207885 0.000207887 1.6676e-11 5.0028e-11 -0 11.8104
601 1 21.69 0 3.615 0.000207853 0.000207861 0.000207862 1.38967e-11 -2.77933e-11 6.80937e-11 11.8104
602 1 23.4975 1.8075 3.615 0.000207878 0.000207884 0.000207882 8.61593e-11 1.94553e-11 2.89051e-10 11.8104
605 1 25.305 0 3.615 0.000207892 0.000207886 0.000207885 8.61593e-11 2.22347e-11 -2.77933e-12 11.8104
649 1 21.69 3.615 3.615 0.000207859 0.000207871 0.000207871 -2.77933e-12 6.6704e-11 7.22627e-11 11.8104
653 1 25.305 3.615 3.615 0.000207896 0.000207894 0.000207894 -7.22627e-11 -8.338e-11 8.89387e-11 11.8104
30 1 27.1125 1.8075 0 0.000207873 0.000207876 0.000207874 -8.7549e-11 1.13953e-09 7.78213e-11 11.8104
31 1 27.1125 0 1.8075 0.000207872 0.000207873 0.000207875 1.09228e-09 -3.3352e-11 5.55867e-11 11.8104
33 1 28.92 0 0 0.000207849 0.000207853 0.000207853 7.22627e-11 1.87605e-10 9.72767e-10 11.8104
36 1 28.92 1.8075 1.8075 0.000207861 0.000207873 0.000207873 -1.94553e-11 1.6676e-11 -3.05727e-11 11.8104
79 1 27.1125 3.615 1.8075 0.000207878 0.000207882 0.000207885 -4.169e-11 -1.00056e-10 -1.40356e-10 11.8104
81 1 28.92 3.615 0 0.000207855 0.000207862 0.000207861 -1.6676e-11 2.02891e-10 3.89107e-11 11.8104
606 1 27.1125 1.8075 3.615 0.000207878 0.000207884 0.000207883 -1.01446e-10 7.5042e-11 1.6676e-10 11.8104
609 1 28.92 0 3.615 0.000207855 0.000207861 0.000207862 1.52863e-10 -2.0845e-11 9.72767e-11 11.8104
657 1 28.92 3.615 3.615 0.000207861 0.00020787 0.00020787 8.61593e-11 -1.6676e-11 3.3352e-11 11.8104
34 1 30.7275 1.8075 0 0.000207854 0.000207864 0.000207861 3.89107e-11 6.94833e-11 -6.6704e-11 11.8104
35 1 30.7275 0 1.8075 0.000207853 0.000207861 0.000207864 4.72487e-11 -1.11173e-11 -6.6704e-11 11.8104
37 1 32.535 0 0 0.000207889 0.000207879 0.000207879 5.4197e-11 -1.38967e-12 1.08394e-09 11.8104
38 1 34.3425 1.8075 0 0.000207896 0.00020789 0.000207887 -6.6704e-11 -1.38967e-10 -8.89387e-11 11.8104
39 1 34.3425 0 1.8075 0.000207895 0.000207886 0.00020789 -1.08394e-10 -7.22627e-11 -5.55867e-11 11.8104
40 1 32.535 1.8075 1.8075 0.000207901 0.000207898 0.000207898 1.63981e-10 1.18122e-10 3.89107e-11 11.8104
83 1 30.7275 3.615 1.8075 0.00020786 0.000207871 0.000207873 -2.22347e-11 1.22291e-10 -1.2507e-11 11.8104
85 1 32.535 3.615 0 0.000207895 0.000207888 0.000207887 1.52863e-11 6.6704e-11 -8.338e-12 11.8104
87 1 34.3425 3.615 1.8075 0.000207902 0.000207897 0.000207899 1.6676e-11 -5.0028e-11 -2.77933e-11 11.8104
610 1 30.7275 1.8075 3.615 0.00020786 0.000207873 0.000207871 1.36187e-10 -7.5042e-11 2.33464e-10 11.8104
613 1 32.535 0 3.615 0.000207895 0.000207887 0.000207888 1.43136e-10 4.30797e-11 2.77933e-12 11.8104
614 1 34.3425 1.8075 3.615 0.000207902 0.000207898 0.000207897 -1.62591e-10 4.72487e-11 2.11229e-10 11.8104
661 1 32.535 3.615 3.615 0.000207902 0.000207897 0.000207897 -0 8.338e-11 1.13953e-10 11.8104
41 1 36.15 0 0 0.000207844 0.000207854 0.000207854 1.52863e-11 -6.94833e-12 9.95001e-10 11.8104
42 1 37.9575 1.8075 0 0.000207896 0.00020789 0.000207887 5.55867e-11 1.33408e-10 -2.22347e-11 11.8104
43 1 37.9575 0 1.8075 0.000207895 0.000207886 0.00020789 4.72487e-11 1.00056e-10 -1.22291e-10 11.8104
44 1 36.15 1.8075 1.8075 0.000207857 0.000207873 0.000207873 1.11173e-11 -9.72767e-12 -2.22347e-11 11.8104
89 1 36.15 3.615 0 0.000207851 0.000207863 0.000207861 -2.9183e-11 3.3352e-11 2.77933e-12 11.8104
91 1 37.9575 3.615 1.8075 0.000207902 0.000207897 0.000207898 -2.22347e-11 3.3352e-11 -1.11173e-11 11.8104
617 1 36.15 0 3.615 0.000207851 0.000207862 0.000207863 -1.52863e-11 -1.2507e-11 4.169e-12 11.8104
618 1 37.9575 1.8075 3.615 0.000207902 0.000207898 0.000207897 1.07004e-10 -3.89107e-11 2.11229e-10 11.8104
665 1 36.15 3.615 3.615 0.000207857 0.000207871 0.000207871 -3.3352e-11 -1.11173e-11 -1.94553e-11 11.8104
45 1 39.765 0 0 0.000207889 0.000207879 0.000207879 -5.0028e-11 -4.44693e-11 9.97781e-10 11.8104
46 1 41.5725 1.8075 0 0.000207853 0.000207864 0.000207861 6.6704e-11 2.97389e-10 -1.00056e-10 11.8104
47 1 41.5725 0 1.8075 0.000207853 0.000207861 0.000207864 3.11285e-10 1.00056e-10 -1.44525e-10 11.8104
48 1 39.765 1.8075 1.8075 0.000207901 0.000207899 0.000207899 -6.80937e-11 -6.53143e-11 1.11173e-11 11.8104
93 1 39.765 3.615 0 0.000207895 0.000207888 0.000207887 2.64037e-11 -1.88995e-10 -8.338e-11 11.8104
95 1 41.5725 3.615 1.8075 0.00020786 0.000207871 0.000207873 -0 1.00056e-10 -4.03003e-11 11.8104
621 1 39.765 0 3.615 0.000207895 0.000207887 0.000207888 -1.05615e-10 5.55867e-12 -1.11173e-11 11.8104
622 1 41.5725 1.8075 3.615 0.00020786 0.000207873 0.000207871 6.11453e-11 8.338e-12 1.6676e-10 11.8104
669 1 39.765 3.615 3.615 0.000207902 0.000207897 0.000207897 4.44693e-11 -4.44693e-11 1.6676e-11 11.8104
50 1 1.8075 5.4225 0 0.000207881 0.000207879 0.000207875 2.64037e-11 -3.3352e-11 -5.55867e-12 11.8104
52 1 0 5.4225 1.8075 0.000207875 0.000207879 0.000207881 -0 -4.44693e-11 -1.38967e-11 11.8104
56 1 3.615 5.4225 1.8075 0.000207888 0.000207888 0.000207891 5.55867e-12 -3.3352e-11 -1.6676e-11 11.8104
97 1 0 7.23 0 0.000207868 0.00020787 0.000207868 3.3352e-11 1.02279e-09 1.11173e-11 11.8104
99 1 1.8075 7.23 1.8075 0.00020789 0.000207888 0.000207891 2.66816e-10 -4.169e-12 1.38967e-11 11.8104
101 1 3.615 7.23 0 0.000207879 0.00020788 0.000207876 -0 3.3352e-11 2.77933e-11 11.8104
626 1 1.8075 5.4225 3.615 0.00020789 0.000207888 0.000207888 5.55867e-11 3.22403e-10 4.169e-12 11.8104
673 1 0 7.23 3.615 0.000207876 0.00020788 0.000207879 -0 4.44693e-11 2.22347e-11 11.8104
677 1 3.615 7.23 3.615 0.000207888 0.000207888 0.000207888 1.38967e-11 3.89107e-11 -1.00056e-10 11.8104
54 1 5.4225 5.4225 0 0.00020788 0.00020788 0.000207876 5.55867e-12 1.94553e-11 1.38967e-12 11.8104
60 1 7.23 5.4225 1.8075 0.000207888 0.000207888 0.000207891 -2.77933e-11 1.11173e-11 -3.89107e-11 11.8104
103 1 5.4225 7.23 1.8075 0.000207888 0.000207888 0.000207891 -2.77933e-11 -0 3.05727e-11 11.8104
105 1 7.23 7.23 0 0.00020788 0.00020788 0.000207876 5.55867e-12 -0 -5.55867e-12 11.8104
630 1 5.4225 5.4225 3.615 0.000207888 0.000207888 0.000207888 -7.22627e-11 -0 -1.2507e-11 11.8104
681 1 7.23 7.23 3.615 0.000207888 0.000207888 0.000207888 -1.05615e-10 1.11173e-11 -6.11453e-11 11.8104
58 1 9.0375 5.4225 0 0.00020788 0.00020788 0.000207876 1.6676e-11 1.94553e-11 1.2507e-11 11.8104
62 1 12.6525 5.4225 0 0.00020788 0.000207879 0.000207876 -2.22347e-11 1.11173e-11 5.55867e-12 11.8104
64 1 10.845 5.4225 1.8075 0.000207888 0.000207888 0.000207891 -0 2.77933e-11 1.6676e-11 11.8104
107 1 9.0375 7.23 1.8075 0.000207888 0.000207888 0.000207891 1.11173e-11 2.77933e-11 -1.38967e-11 11.8104
109 1 10.845 7.23 0 0.00020788 0.00020788 0.000207876 -2.9183e-11 -1.11173e-11 1.38967e-11 11.8104
111 1 12.6525 7.23 1.8075 0.000207889 0.000207888 0.00020789 2.77933e-11 3.89107e-11 6.11453e-11 11.8104
634 1 9.0375 5.4225 3.615 0.000207888 0.000207888 0.000207888 4.44693e-11 2.77933e-12 4.169e-12 11.8104
638 1 12.6525 5.4225 3.615 0.000207889 0.000207888 0.000207888 -1.11173e-11 -8.338e-12 5.55867e-12 11.8104
685 1 10.845 7.23 3.615 0.000207888 0.000207888 0.000207888 -0 -4.44693e-11 -1.6676e-11 11.8104
66 1 16.2675 5.4225 0 0.000207872 0.000207874 0.000207874 -0 -1.12285e-09 1.6676e-11 11.8104
68 1 14.46 5.4225 1.8075 0.000207873 0.000207879 0.000207882 -5.55867e-12 -3.61313e-11 -5.55867e-12 11.8104
113 1 14.46 7.23 0 0.000207866 0.000207871 0.000207868 3.19623e-11 -1.19511e-09 4.44693e-11 11.8104
115 1 16.2675 7.23 1.8075 0.000207877 0.000207882 0.000207885 -9.1718e-11 -1.11173e-11 -1.6676e-11 11.8104
642 1 16.2675 5.4225 3.615 0.000207877 0.000207883 0.000207882 -1.6676e-11 -3.89107e-11 6.11453e-11 11.8104
689 1 14.46 7.23 3.615 0.000207874 0.00020788 0.000207879 -1.11173e-11 1.11173e-11 -0 11.8104
70 1 19.8825 5.4225 0 0.000207873 0.000207874 0.000207874 -5.55867e-12 1.08394e-09 -1.6676e-11 11.8104
72 1 18.075 5.4225 1.8075 0.000207896 0.000207894 0.000207896 1.6676e-11 4.30797e-11 -8.338e-12 11.8104
117 1 18.075 7.23 0 0.000207892 0.000207885 0.000207887 1.38967e-12 5.55867e-12 5.8366e-11 11.8104
119 1 19.8825 7.23 1.8075 0.000207878 0.000207883 0.000207885 -1.94553e-11 -5.55867e-11 -5.55867e-12 11.8104
646 1 19.8825 5.4225 3.615 0.000207879 0.000207883 0.000207883 1.6676e-11 3.05727e-11 6.6704e-11 11.8104
693 1 18.075 7.23 3.615 0.000207895 0.000207894 0.000207893 -1.6676e-11 -9.44973e-11 -7.5042e-11 11.8104
74 1 23.4975 5.4225 0 0.000207873 0.000207874 0.000207874 -1.52863e-11 -1.06448e-09 1.52863e-11 11.8104
76 1 21.69 5.4225 1.8075 0.000207859 0.000207871 0.000207873 -0 5.55867e-12 2.64037e-11 11.8104
80 1 25.305 5.4225 1.8075 0.000207895 0.000207894 0.000207896 8.338e-12 -3.3352e-11 1.94553e-11 11.8104
121 1 21.69 7.23 0 0.000207853 0.000207862 0.000207861 -1.11173e-11 2.77933e-11 7.0873e-11 11.8104
123 1 23.4975 7.23 1.8075 0.000207878 0.000207883 0.000207885 2.22347e-11 5.0028e-11 -1.80657e-11 11.8104
125 1 25.305 7.23 0 0.000207892 0.000207886 0.000207887 5.55867e-12 1.6676e-11 -0 11.8104
650 1 23.4975 5.4225 3.615 0.000207879 0.000207883 0.000207883 -5.55867e-12 -1.11173e-11 -3.19623e-11 11.8104
697 1 21.69 7.23 3.615 0.000207859 0.000207871 0.000207871 -1.94553e-11 1.6676e-11 2.77933e-11 11.8104
701 1 25.305 7.23 3.615 0.000207896 0.000207894 0.000207894 5.0028e-11 5.0028e-11 -6.6704e-11 11.8104
78 1 27.1125 5.4225 0 0.000207873 0.000207874 0.000207874 2.77933e-12 1.06448e-09 3.7521e-11 11.8104
84 1 28.92 5.4225 1.8075 0.000207861 0.00020787 0.000207872 2.77933e-12 7.22627e-11 1.6676e-11 11.8104
127 1 27.1125 7.23 1.8075 0.000207878 0.000207883 0.000207885 5.55867e-12 -1.27849e-10 2.64037e-11 11.8104
129 1 28.92 7.23 0 0.000207855 0.000207862 0.000207861 1.6676e-11 1.36187e-10 2.77933e-11 11.8104
654 1 27.1125 5.4225 3.615 0.000207878 0.000207882 0.000207882 1.11173e-11 -3.3352e-11 3.89107e-11 11.8104
705 1 28.92 7.23 3.615 0.000207861 0.000207871 0.000207871 -6.94833e-11 -3.89107e-11 -7.78213e-11 11.8104
82 1 30.7275 5.4225 0 0.000207853 0.000207862 0.000207861 -5.55867e-12 1.94553e-11 -5.28073e-11 11.8104
86 1 34.3425 5.4225 0 0.000207896 0.000207888 0.000207887 -2.22347e-11 -1.91774e-10 7.22627e-11 11.8104
88 1 32.535 5.4225 1.8075 0.000207901 0.000207897 0.000207898 -5.55867e-12 1.52863e-10 -1.2507e-11 11.8104
131 1 30.7275 7.23 1.8075 0.00020786 0.000207871 0.000207873 -6.6704e-11 1.11173e-11 1.2507e-11 11.8104
133 1 32.535 7.23 0 0.000207896 0.000207888 0.000207887 -6.94833e-12 1.22291e-10 2.77933e-12 11.8104
135 1 34.3425 7.23 1.8075 0.000207902 0.000207897 0.000207899 1.6676e-11 -5.0028e-11 -5.55867e-12 11.8104
658 1 30.7275 5.4225 3.615 0.00020786 0.000207871 0.000207871 -5.0028e-11 -8.338e-12 2.77933e-11 11.8104
662 1 34.3425 5.4225 3.615 0.000207903 0.000207897 0.000207897 3.89107e-11 -7.5042e-11 8.338e-11 11.8104
709 1 32.535 7.23 3.615 0.000207902 0.000207897 0.000207897 1.11173e-11 1.05615e-10 -6.39247e-11 11.8104
90 1 37.9575 5.4225 0 0.000207896 0.000207888 0.000207887 -5.0028e-11 1.2507e-10 -5.55867e-12 11.8104
92 1 36.15 5.4225 1.8075 0.000207856 0.000207871 0.000207873 5.55867e-12 -5.8366e-11 -6.94833e-12 11.8104
137 1 36.15 7.23 0 0.000207851 0.000207863 0.000207862 -6.80937e-11 5.55867e-12 1.6676e-11 11.8104
139 1 37.9575 7.23 1.8075 0.000207902 0.000207897 0.000207898 2.22347e-11 1.6676e-10 7.78213e-11 11.8104
666 1 37.9575 5.4225 3.615 0.000207902 0.000207897 0.000207897 6.11453e-11 2.22347e-11 -5.55867e-12 11.8104
713 1 36.15 7.23 3.615 0.000207857 0.000207871 0.000207871 -1.11173e-11 -5.55867e-11 5.55867e-12 11.8104
94 1 41.5725 5.4225 0 0.000207853 0.000207862 0.000207861 1.77877e-10 1.55643e-10 8.89387e-11 11.8104
96 1 39.765 5.4225 1.8075 0.000207901 0.000207896 0.000207899 -0 -1.15342e-10 1.52863e-11 11.8104
141 1 39.765 7.23 0 0.000207895 0.000207888 0.000207887 1.11173e-11 -1.44525e-10 5.55867e-12 11.8104
143 1 41.5725 7.23 1.8075 0.00020786 0.000207871 0.000207873 -0 -0 3.7521e-11 11.8104
670 1 41.5725 5.4225 3.615 0.00020786 0.000207871 0.000207871 1.33408e-10 1.00056e-10 -5.55867e-11 11.8104
717 1 39.765 7.23 3.615 0.000207902 0.000207897 0.000207897 4.169e-11 -1.05615e-10 -2.5014e-11 11.8104
98 1 1.8075 9.0375 0 0.000207881 0.000207879 0.000207875 -1.11173e-11 -0 1.38967e-11 11.8104
100 1 0 9.0375 1.8075 0.000207875 0.000207879 0.000207881 8.338e-12 -7.78213e-11 -3.61313e-11 11.8104
104 1 3.615 9.0375 1.8075 0.000207888 0.000207888 0.000207891 2.77933e-12 -6.6704e-11 2.77933e-11 11.8104
145 1 0 10.845 0 0.000207868 0.000207871 0.000207868 -8.338e-12 1.02835e-09 5.55867e-12 11.8104
146 1 1.8075 12.6525 0 0.000207881 0.00020788 0.000207875 2.02891e-10 6.6704e-11 -5.8366e-11 11.8104
147 1 1.8075 10.845 1.8075 0.000207891 0.000207888 0.000207891 2.77933e-11 9.72767e-12 -2.22347e-11 11.8104
148 1 0 12.6525 1.8075 0.000207875 0.00020788 0.000207881 1.11173e-11 -6.6704e-11 5.28073e-11 11.8104
149 1 3.615 10.845 0 0.000207879 0.00020788 0.000207876 -1.38967e-11 -2.77933e-11 -0 11.8104
152 1 3.615 12.6525 1.8075 0.000207888 0.000207889 0.00020789 2.5014e-11 -2.22347e-11 -1.11173e-11 11.8104
674 1 1.8075 9.0375 3.615 0.00020789 0.000207888 0.000207888 1.38967e-12 2.44581e-10 3.05727e-11 11.8104
721 1 0 10.845 3.615 0.000207876 0.000207879 0.000207879 -0 5.28073e-11 -5.55867e-11 11.8104
722 1 1.8075 12.6525 3.615 0.00020789 0.000207889 0.000207888 2.05671e-10 1.88995e-10 7.78213e-11 11.8104
725 1 3.615 10.845 3.615 0.000207888 0.000207888 0.000207888 -6.6704e-11 7.22627e-11 -5.55867e-12 11.8104
102 1 5.4225 9.0375 0 0.00020788 0.00020788 0.000207876 2.22347e-11 -2.0845e-11 -8.338e-12 11.8104
108 1 7.23 9.0375 1.8075 0.000207888 0.000207888 0.000207891 -1.11173e-11 -2.77933e-11 -0 11.8104
150 1 5.4225 12.6525 0 0.000207879 0.00020788 0.000207876 -5.55867e-12 5.55867e-12 5.28073e-11 11.8104
151 1 5.4225 10.845 1.8075 0.000207888 0.000207888 0.000207891 2.22347e-11 8.338e-12 -1.6676e-11 11.8104
153 1 7.23 10.845 0 0.00020788 0.00020788 0.000207876 -6.11453e-11 -2.77933e-11 4.44693e-11 11.8104
156 1 7.23 12.6525 1.8075 0.000207888 0.000207889 0.00020789 -4.44693e-11 5.55867e-11 3.89107e-11 11.8104
678 1 5.4225 9.0375 3.615 0.000207889 0.000207889 0.000207889 1.6676e-11 4.30797e-11 -1.94553e-11 11.8104
726 1 5.4225 12.6525 3.615 0.000207888 0.000207889 0.000207888 4.44693e-11 -1.11173e-11 -8.89387e-11 11.8104
729 1 7.23 10.845 3.615 0.000207888 0.000207888 0.000207888 5.55867e-11 -0 -3.89107e-11 11.8104
106 1 9.0375 9.0375 0 0.00020788 0.00020788 0.000207876 1.6676e-11 7.22627e-11 -0 11.8104
110 1 12.6525 9.0375 0 0.00020788 0.000207879 0.000207875 5.0028e-11 -8.338e-12 5.55867e-12 11.8104
112 1 10.845 9.0375 1.8075 0.000207888 0.000207889 0.000207891 1.94553e-11 8.89387e-11 2.5014e-11 11.8104
154 1 9.0375 12.6525 0 0.000207879 0.00020788 0.000207875 5.55867e-12 8.338e-12 -1.6676e-11 11.8104
155 1 9.0375 10.845 1.8075 0.000207888 0.000207888 0.000207891 -2.22347e-11 3.3352e-11 7.78213e-11 11.8104
157 1 10.845 10.845 0 0.000207879 0.00020788 0.000207876 8.61593e-11 -0 -0 11.8104
158 1 12.6525 12.6525 0 0.00020788 0.00020788 0.000207875 -5.8366e-11 -0 -5.55867e-12 11.8104
159 1 12.6525 10.845 1.8075 0.000207889 0.000207888 0.00020789 -8.338e-12 5.55867e-11 -5.55867e-12 11.8104
160 1 10.845 12.6525 1.8075 0.000207888 0.000207889 0.00020789 -1.94553e-11 -5.55867e-12 3.47417e-11 11.8104
682 1 9.0375 9.0375 3.615 0.000207888 0.000207888 0.000207888 3.05727e-11 5.55867e-11 3.89107e-11 11.8104
686 1 12.6525 9.0375 3.615 0.000207889 0.000207888 0.000207888 1.11173e-11 -5.55867e-11 4.44693e-11 11.8104
730 1 9.0375 12.6525 3.615 0.000207888 0.000207889 0.000207888 2.22347e-11 1.11173e-11 -3.89107e-11 11.8104
733 1 10.845 10.845 3.615 0.000207888 0.000207888 0.000207888 -5.55867e-12 -7.22627e-11 -3.7521e-11 11.8104
734 1 12.6525 12.6525 3.615 0.000207889 0.000207889 0.000207888 -8.338e-12 -1.11173e-11 2.22347e-11 11.8104
114 1 16.2675 9.0375 0 0.000207872 0.000207874 0.000207874 -2.5014e-11 -1.12285e-09 -5.55867e-12 11.8104
116 1 14.46 9.0375 1.8075 0.000207874 0.00020788 0.000207882 -6.39247e-11 -6.39247e-11 1.38967e-12 11.8104
161 1 14.46 10.845 0 0.000207867 0.000207871 0.000207869 3.19623e-11 -1.17566e-09 2.77933e-11 11.8104
162 1 16.2675 12.6525 0 0.000207872 0.000207875 0.000207874 1.11173e-11 -1.05615e-09 -1.33408e-10 11.8104
163 1 16.2675 10.845 1.8075 0.000207877 0.000207882 0.000207884 4.72487e-11 5.55867e-11 2.77933e-11 11.8104
164 1 14.46 12.6525 1.8075 0.000207873 0.00020788 0.000207881 1.38967e-11 5.55867e-12 7.22627e-11 11.8104
690 1 16.2675 9.0375 3.615 0.000207877 0.000207883 0.000207882 5.55867e-11 -1.6676e-11 -3.3352e-11 11.8104
737 1 14.46 10.845 3.615 0.000207874 0.00020788 0.00020788 5.55867e-11 -1.94553e-11 5.97557e-11 11.8104
738 1 16.2675 12.6525 3.615 0.000207878 0.000207884 0.000207883 -8.338e-12 -2.77933e-11 1.44525e-10 11.8104
118 1 19.8825 9.0375 0 0.000207873 0.000207874 0.000207874 5.8366e-11 1.05059e-09 5.55867e-12 11.8104
120 1 18.075 9.0375 1.8075 0.000207896 0.000207894 0.000207896 -0 4.30797e-11 5.8366e-11 11.8104
165 1 18.075 10.845 0 0.000207892 0.000207886 0.000207887 -1.94553e-11 2.77933e-12 5.97557e-11 11.8104
166 1 19.8825 12.6525 0 0.000207873 0.000207875 0.000207874 -4.72487e-11 1.06448e-09 -6.6704e-11 11.8104
167 1 19.8825 10.845 1.8075 0.000207878 0.000207882 0.000207885 1.6676e-11 -1.11173e-10 -3.3352e-11 11.8104
168 1 18.075 12.6525 1.8075 0.000207895 0.000207895 0.000207896 6.94833e-11 5.55867e-12 3.7521e-11 11.8104
694 1 19.8825 9.0375 3.615 0.000207879 0.000207883 0.000207883 -3.61313e-11 7.22627e-11 -1.6676e-11 11.8104
741 1 18.075 10.845 3.615 0.000207896 0.000207894 0.000207894 -8.89387e-11 2.77933e-12 -1.11173e-11 11.8104
742 1 19.8825 12.6525 3.615 0.000207878 0.000207883 0.000207882 6.39247e-11 5.55867e-12 7.22627e-11 11.8104
122 1 23.4975 9.0375 0 0.000207873 0.000207874 0.000207874 -7.78213e-11 -1.05754e-09 -5.8366e-11 11.8104
124 1 21.69 9.0375 1.8075 0.000207859 0.000207871 0.000207873 -2.77933e-11 -0 -4.03003e-11 11.8104
128 1 25.305 9.0375 1.8075 0.000207896 0.000207894 0.000207896 7.22627e-11 5.55867e-12 -2.77933e-11 11.8104
169 1 21.69 10.845 0 0.000207853 0.000207863 0.000207861 2.22347e-11 -2.77933e-11 2.5014e-11 11.8104
170 1 23.4975 12.6525 0 0.000207873 0.000207875 0.000207874 3.3352e-11 -1.07838e-09 -1.00056e-10 11.8104
171 1 23.4975 10.845 1.8075 0.000207878 0.000207882 0.000207884 -1.6676e-11 4.03003e-11 -6.94833e-12 11.8104
172 1 21.69 12.6525 1.8075 0.000207859 0.000207872 0.000207873 5.0028e-11 2.22347e-11 1.52863e-11 11.8104
173 1 25.305 10.845 0 0.000207892 0.000207886 0.000207887 -4.44693e-11 1.6676e-11 8.338e-11 11.8104
176 1 25.305 12.6525 1.8075 0.000207895 0.000207895 0.000207896 4.169e-11 1.6676e-11 1.27849e-10 11.8104
698 1 23.4975 9.0375 3.615 0.000207879 0.000207883 0.000207883 -3.3352e-11 -7.0873e-11 4.72487e-11 11.8104
745 1 21.69 10.845 3.615 0.000207859 0.000207871 0.000207871 3.89107e-11 3.05727e-11 -5.14177e-11 11.8104
746 1 23.4975 12.6525 3.615 0.000207879 0.000207884 0.000207883 -2.22347e-11 1.6676e-11 -2.77933e-12 11.8104
749 1 25.305 10.845 3.615 0.000207895 0.000207894 0.000207893 -6.6704e-11 8.338e-12 3.89107e-11 11.8104
126 1 27.1125 9.0375 0 0.000207873 0.000207874 0.000207874 3.3352e-11 1.08811e-09 -9.44973e-11 11.8104
132 1 28.92 9.0375 1.8075 0.000207861 0.000207871 0.000207873 1.6676e-11 5.55867e-11 1.6676e-11 11.8104
174 1 27.1125 12.6525 0 0.000207873 0.000207875 0.000207874 4.44693e-11 1.10062e-09 -7.22627e-11 11.8104
175 1 27.1125 10.845 1.8075 0.000207878 0.000207882 0.000207884 1.11173e-11 -6.94833e-11 -1.6676e-11 11.8104
177 1 28.92 10.845 0 0.000207855 0.000207862 0.000207861 1.52863e-11 1.41746e-10 1.11173e-11 11.8104
180 1 28.92 12.6525 1.8075 0.000207861 0.000207872 0.000207873 -2.5014e-11 8.338e-11 6.6704e-11 11.8104
702 1 27.1125 9.0375 3.615 0.000207878 0.000207883 0.000207883 3.89107e-11 4.5859e-11 1.11173e-11 11.8104
750 1 27.1125 12.6525 3.615 0.000207878 0.000207883 0.000207882 -0 -5.0028e-11 -4.44693e-11 11.8104
753 1 28.92 10.845 3.615 0.000207861 0.000207871 0.000207871 6.6704e-11 -2.22347e-11 -1.05615e-10 11.8104
130 1 30.7275 9.0375 0 0.000207853 0.000207862 0.000207861 -1.94553e-11 3.3352e-11 -5.55867e-12 11.8104
134 1 34.3425 9.0375 0 0.000207896 0.000207889 0.000207887 -2.22347e-11 -1.63981e-10 6.11453e-11 11.8104
136 1 32.535 9.0375 1.8075 0.000207901 0.000207897 0.000207898 4.44693e-11 9.72767e-11 -0 11.8104
178 1 30.7275 12.6525 0 0.000207853 0.000207863 0.000207861 -0 -2.77933e-12 -7.78213e-11 11.8104
179 1 30.7275 10.845 1.8075 0.00020786 0.000207871 0.000207873 2.77933e-12 2.77933e-11 9.72767e-12 11.8104
181 1 32.535 10.845 0 0.000207895 0.000207888 0.000207886 -3.19623e-11 1.16732e-10 3.19623e-11 11.8104
182 1 34.3425 12.6525 0 0.000207896 0.000207889 0.000207887 2.77933e-11 -2.58478e-10 2.77933e-11 11.8104
183 1 34.3425 10.845 1.8075 0.000207902 0.000207897 0.0002079 -2.77933e-12 -1.50084e-10 2.77933e-12 11.8104
184 1 32.535 12.6525 1.8075 0.000207901 0.000207898 0.000207898 -5.55867e-12 1.00056e-10 6.53143e-11 11.8104
706 1 30.7275 9.0375 3.615 0.00020786 0.000207871 0.000207871 -0 5.0028e-11 -1.11173e-11 11.8104
710 1 34.3425 9.0375 3.615 0.000207903 0.000207897 0.000207897 1.11173e-11 -2.22347e-11 -6.6704e-11 11.8104
754 1 30.7275 12.6525 3.615 0.00020786 0.000207872 0.000207871 -4.72487e-11 8.338e-11 5.55867e-12 11.8104
757 1 32.535 10.845 3.615 0.000207902 0.000207897 0.000207897 -7.22627e-11 -5.55867e-12 -5.55867e-11 11.8104
758 1 34.3425 12.6525 3.615 0.000207902 0.000207898 0.000207897 -1.6676e-11 3.3352e-11 1.11173e-11 11.8104
138 1 37.9575 9.0375 0 0.000207895 0.000207888 0.000207886 2.77933e-11 1.88995e-10 2.77933e-11 11.8104
140 1 36.15 9.0375 1.8075 0.000207856 0.000207871 0.000207873 -3.3352e-11 -1.94553e-11 -1.80657e-11 11.8104
185 1 36.15 10.845 0 0.000207851 0.000207863 0.000207862 6.2535e-11 -7.22627e-11 1.94553e-11 11.8104
186 1 37.9575 12.6525 0 0.000207896 0.000207889 0.000207887 -6.6704e-11 2.19567e-10 -1.6676e-11 11.8104
187 1 37.9575 10.845 1.8075 0.000207902 0.000207896 0.000207898 -2.77933e-11 1.33408e-10 -3.05727e-11 11.8104
188 1 36.15 12.6525 1.8075 0.000207857 0.000207872 0.000207873 6.6704e-11 5.55867e-11 2.9183e-11 11.8104
714 1 37.9575 9.0375 3.615 0.000207902 0.000207897 0.000207897 5.55867e-12 -4.44693e-11 3.3352e-11 11.8104
761 1 36.15 10.845 3.615 0.000207857 0.000207871 0.000207871 8.89387e-11 3.89107e-11 4.44693e-11 11.8104
762 1 37.9575 12.6525 3.615 0.000207903 0.000207898 0.000207897 -7.78213e-11 -2.22347e-11 -1.11173e-11 11.8104
142 1 41.5725 9.0375 0 0.000207853 0.000207863 0.000207861 1.6676e-10 1.00056e-10 1.33408e-10 11.8104
144 1 39.765 9.0375 1.8075 0.000207902 0.000207897 0.000207899 -1.11173e-11 -1.15342e-10 -4.86383e-11 11.8104
189 1 39.765 10.845 0 0.000207896 0.000207888 0.000207887 -4.44693e-11 -1.55643e-10 5.4197e-11 11.8104
190 1 41.5725 12.6525 0 0.000207854 0.000207864 0.000207861 -1.11173e-11 1.97333e-10 -4.44693e-11 11.8104
191 1 41.5725 10.845 1.8075 0.00020786 0.000207871 0.000207874 1.11173e-10 -6.6704e-11 1.11173e-11 11.8104
192 1 39.765 12.6525 1.8075 0.000207901 0.000207898 0.000207898 6.6704e-11 -1.01446e-10 4.30797e-11 11.8104
718 1 41.5725 9.0375 3.615 0.000207861 0.000207872 0.000207871 1.6676e-10 1.55643e-10 -4.44693e-11 11.8104