#Header 
 
6912 atoms 
 
2 atom types 

0.0000000000000000e+00 4.3380000338459396e+01 xlo xhi
0.0000000000000000e+00 4.3380000338459396e+01 ylo yhi
0.0000000000000000e+00 4.3380000338459396e+01 zlo zhi

Atoms 

1 1 6.13375e-16 6.06786e-16 6.1038e-16
2 1 1.8075 1.8075 7.51744e-16
3 1 1.8075 7.50845e-16 1.8075
4 1 7.61927e-16 1.8075 1.8075
5 1 3.615 6.80463e-16 6.77168e-16
8 1 3.615 1.8075 1.8075
49 1 6.81661e-16 3.615 6.75072e-16
51 1 1.8075 3.615 1.8075
53 1 3.615 3.615 7.52343e-16
577 1 6.80463e-16 6.78067e-16 3.615
578 1 1.8075 1.8075 3.615
581 1 3.615 7.54739e-16 3.615
625 1 7.57135e-16 3.615 3.615
629 1 3.615 3.615 3.615
6 1 5.4225 1.8075 7.46053e-16
7 1 5.4225 7.40363e-16 1.8075
9 1 7.23 6.68483e-16 6.71178e-16
12 1 7.23 1.8075 1.8075
55 1 5.4225 3.615 1.8075
57 1 7.23 3.615 7.52343e-16
582 1 5.4225 1.8075 3.615
585 1 7.23 7.52343e-16 3.615
633 1 7.23 3.615 3.615
10 1 9.0375 1.8075 7.48449e-16
11 1 9.0375 7.47551e-16 1.8075
13 1 10.845 6.70879e-16 6.74473e-16
14 1 12.6525 1.8075 7.48749e-16
15 1 12.6525 7.54739e-16 1.8075
16 1 10.845 1.8075 1.8075
59 1 9.0375 3.615 1.8075
61 1 10.845 3.615 7.45155e-16
63 1 12.6525 3.615 1.8075
586 1 9.0375 1.8075 3.615
589 1 10.845 7.57135e-16 3.615
590 1 12.6525 1.8075 3.615
637 1 10.845 3.615 3.615
17 1 14.46 5.94207e-16 5.94207e-16
18 1 16.2675 1.8075 5.45388e-16
19 1 16.2675 5.39099e-16 1.8075
20 1 14.46 1.8075 1.8075
65 1 14.46 3.615 6.70879e-16
67 1 16.2675 3.615 1.8075
593 1 14.46 6.73275e-16 3.615
594 1 16.2675 1.8075 3.615
641 1 14.46 3.615 3.615
21 1 18.075 3.90547e-16 3.76171e-16
22 1 19.8825 1.8075 5.33109e-16
23 1 19.8825 5.36703e-16 1.8075
24 1 18.075 1.8075 1.8075
69 1 18.075 3.615 4.62427e-16
71 1 19.8825 3.615 1.8075
597 1 18.075 4.69615e-16 3.615
598 1 19.8825 1.8075 3.615
645 1 18.075 3.615 3.615
25 1 21.69 5.29515e-16 5.25022e-16
26 1 23.4975 1.8075 5.35505e-16
27 1 23.4975 5.46287e-16 1.8075
28 1 21.69 1.8075 1.8075
29 1 25.305 3.92943e-16 3.7677e-16
32 1 25.305 1.8075 1.8075
73 1 21.69 3.615 5.94207e-16
75 1 23.4975 3.615 1.8075
77 1 25.305 3.615 4.69615e-16
601 1 21.69 6.01395e-16 3.615
602 1 23.4975 1.8075 3.615
605 1 25.305 4.74407e-16 3.615
649 1 21.69 3.615 3.615
653 1 25.305 3.615 3.615
30 1 27.1125 1.8075 5.25921e-16
31 1 27.1125 5.39099e-16 1.8075
33 1 28.92 5.43891e-16 5.28017e-16
36 1 28.92 1.8075 1.8075
79 1 27.1125 3.615 1.8075
81 1 28.92 3.615 5.96603e-16
606 1 27.1125 1.8075 3.615
609 1 28.92 6.06187e-16 3.615
657 1 28.92 3.615 3.615
34 1 30.7275 1.8075 6.09781e-16
35 1 30.7275 6.08583e-16 1.8075
37 1 32.535 5.58267e-16 5.48683e-16
38 1 34.3425 1.8075 6.13375e-16
39 1 34.3425 6.22959e-16 1.8075
40 1 32.535 1.8075 1.8075
83 1 30.7275 3.615 1.8075
85 1 32.535 3.615 6.18167e-16
87 1 34.3425 3.615 1.8075
610 1 30.7275 1.8075 3.615
613 1 32.535 6.20563e-16 3.615
614 1 34.3425 1.8075 3.615
661 1 32.535 3.615 3.615
41 1 36.15 5.43891e-16 5.37901e-16
42 1 37.9575 1.8075 6.20563e-16
43 1 37.9575 6.18167e-16 1.8075
44 1 36.15 1.8075 1.8075
89 1 36.15 3.615 5.94207e-16
91 1 37.9575 3.615 1.8075
617 1 36.15 6.15771e-16 3.615
618 1 37.9575 1.8075 3.615
665 1 36.15 3.615 3.615
45 1 39.765 5.50929e-16 5.47335e-16
46 1 41.5725 1.8075 6.11578e-16
47 1 41.5725 6.12177e-16 1.8075
48 1 39.765 1.8075 1.8075
93 1 39.765 3.615 6.07385e-16
95 1 41.5725 3.615 1.8075
621 1 39.765 6.1652e-16 3.615
622 1 41.5725 1.8075 3.615
669 1 39.765 3.615 3.615
50 1 1.8075 5.4225 7.46053e-16
52 1 7.57135e-16 5.4225 1.8075
56 1 3.615 5.4225 1.8075
97 1 6.79265e-16 7.23 6.75072e-16
99 1 1.8075 7.23 1.8075
101 1 3.615 7.23 7.49947e-16
626 1 1.8075 5.4225 3.615
673 1 7.48749e-16 7.23 3.615
677 1 3.615 7.23 3.615
54 1 5.4225 5.4225 7.45155e-16
60 1 7.23 5.4225 1.8075
103 1 5.4225 7.23 1.8075
105 1 7.23 7.23 7.47551e-16
630 1 5.4225 5.4225 3.615
681 1 7.23 7.23 3.615
58 1 9.0375 5.4225 7.47551e-16
62 1 12.6525 5.4225 7.47551e-16
64 1 10.845 5.4225 1.8075
107 1 9.0375 7.23 1.8075
109 1 10.845 7.23 7.47551e-16
111 1 12.6525 7.23 1.8075
634 1 9.0375 5.4225 3.615
638 1 12.6525 5.4225 3.615
685 1 10.845 7.23 3.615
66 1 16.2675 5.4225 5.39099e-16
68 1 14.46 5.4225 1.8075
113 1 14.46 7.23 6.70879e-16
115 1 16.2675 7.23 1.8075
642 1 16.2675 5.4225 3.615
689 1 14.46 7.23 3.615
70 1 19.8825 5.4225 5.34307e-16
72 1 18.075 5.4225 1.8075
117 1 18.075 7.23 4.69615e-16
119 1 19.8825 7.23 1.8075
646 1 19.8825 5.4225 3.615
693 1 18.075 7.23 3.615
74 1 23.4975 5.4225 5.31911e-16
76 1 21.69 5.4225 1.8075
80 1 25.305 5.4225 1.8075
121 1 21.69 7.23 5.89415e-16
123 1 23.4975 7.23 1.8075
125 1 25.305 7.23 4.74407e-16
650 1 23.4975 5.4225 3.615
697 1 21.69 7.23 3.615
701 1 25.305 7.23 3.615
78 1 27.1125 5.4225 5.39099e-16
84 1 28.92 5.4225 1.8075
127 1 27.1125 7.23 1.8075
129 1 28.92 7.23 5.98999e-16
654 1 27.1125 5.4225 3.615
705 1 28.92 7.23 3.615
82 1 30.7275 5.4225 5.98999e-16
86 1 34.3425 5.4225 6.08583e-16
88 1 32.535 5.4225 1.8075
131 1 30.7275 7.23 1.8075
133 1 32.535 7.23 6.15771e-16
135 1 34.3425 7.23 1.8075
658 1 30.7275 5.4225 3.615
662 1 34.3425 5.4225 3.615
709 1 32.535 7.23 3.615
90 1 37.9575 5.4225 6.10979e-16
92 1 36.15 5.4225 1.8075
137 1 36.15 7.23 5.98999e-16
139 1 37.9575 7.23 1.8075
666 1 37.9575 5.4225 3.615
713 1 36.15 7.23 3.615
94 1 41.5725 5.4225 6.01395e-16
96 1 39.765 5.4225 1.8075
141 1 39.765 7.23 6.09781e-16
143 1 41.5725 7.23 1.8075
670 1 41.5725 5.4225 3.615
717 1 39.765 7.23 3.615
98 1 1.8075 9.0375 7.46353e-16
100 1 7.52343e-16 9.0375 1.8075
104 1 3.615 9.0375 1.8075
145 1 6.75671e-16 10.845 6.79265e-16
146 1 1.8075 12.6525 7.45155e-16
147 1 1.8075 10.845 1.8075
148 1 7.49947e-16 12.6525 1.8075
149 1 3.615 10.845 7.49947e-16
152 1 3.615 12.6525 1.8075
674 1 1.8075 9.0375 3.615
721 1 7.52343e-16 10.845 3.615
722 1 1.8075 12.6525 3.615
725 1 3.615 10.845 3.615
102 1 5.4225 9.0375 7.52343e-16
108 1 7.23 9.0375 1.8075
150 1 5.4225 12.6525 7.47551e-16
151 1 5.4225 10.845 1.8075
153 1 7.23 10.845 7.49947e-16
156 1 7.23 12.6525 1.8075
678 1 5.4225 9.0375 3.615
726 1 5.4225 12.6525 3.615
729 1 7.23 10.845 3.615
106 1 9.0375 9.0375 7.52343e-16
110 1 12.6525 9.0375 7.49947e-16
112 1 10.845 9.0375 1.8075
154 1 9.0375 12.6525 7.52343e-16
155 1 9.0375 10.845 1.8075
157 1 10.845 10.845 7.52343e-16
158 1 12.6525 12.6525 7.52343e-16
159 1 12.6525 10.845 1.8075
160 1 10.845 12.6525 1.8075
682 1 9.0375 9.0375 3.615
686 1 12.6525 9.0375 3.615
730 1 9.0375 12.6525 3.615
733 1 10.845 10.845 3.615
734 1 12.6525 12.6525 3.615
114 1 16.2675 9.0375 5.43891e-16
116 1 14.46 9.0375 1.8075
161 1 14.46 10.845 6.73275e-16
162 1 16.2675 12.6525 5.34307e-16
163 1 16.2675 10.845 1.8075
164 1 14.46 12.6525 1.8075
690 1 16.2675 9.0375 3.615
737 1 14.46 10.845 3.615
738 1 16.2675 12.6525 3.615
118 1 19.8825 9.0375 5.29515e-16
120 1 18.075 9.0375 1.8075
165 1 18.075 10.845 4.72011e-16
166 1 19.8825 12.6525 5.43891e-16
167 1 19.8825 10.845 1.8075
168 1 18.075 12.6525 1.8075
694 1 19.8825 9.0375 3.615
741 1 18.075 10.845 3.615
742 1 19.8825 12.6525 3.615
122 1 23.4975 9.0375 5.34307e-16
124 1 21.69 9.0375 1.8075
128 1 25.305 9.0375 1.8075
169 1 21.69 10.845 5.96603e-16
170 1 23.4975 12.6525 5.34307e-16
171 1 23.4975 10.845 1.8075
172 1 21.69 12.6525 1.8075
173 1 25.305 10.845 4.72011e-16
176 1 25.305 12.6525 1.8075
698 1 23.4975 9.0375 3.615
745 1 21.69 10.845 3.615
746 1 23.4975 12.6525 3.615
749 1 25.305 10.845 3.615
126 1 27.1125 9.0375 5.41495e-16
132 1 28.92 9.0375 1.8075
174 1 27.1125 12.6525 5.36703e-16
175 1 27.1125 10.845 1.8075
177 1 28.92 10.845 6.01395e-16
180 1 28.92 12.6525 1.8075
702 1 27.1125 9.0375 3.615
750 1 27.1125 12.6525 3.615
753 1 28.92 10.845 3.615
130 1 30.7275 9.0375 6.03791e-16
134 1 34.3425 9.0375 6.13375e-16
136 1 32.535 9.0375 1.8075
178 1 30.7275 12.6525 6.06187e-16
179 1 30.7275 10.845 1.8075
181 1 32.535 10.845 6.30147e-16
182 1 34.3425 12.6525 6.18167e-16
183 1 34.3425 10.845 1.8075
184 1 32.535 12.6525 1.8075
706 1 30.7275 9.0375 3.615
710 1 34.3425 9.0375 3.615
754 1 30.7275 12.6525 3.615
757 1 32.535 10.845 3.615
758 1 34.3425 12.6525 3.615
138 1 37.9575 9.0375 6.13375e-16
140 1 36.15 9.0375 1.8075
185 1 36.15 10.845 6.01395e-16
186 1 37.9575 12.6525 6.10979e-16
187 1 37.9575 10.845 1.8075
188 1 36.15 12.6525 1.8075
714 1 37.9575 9.0375 3.615
761 1 36.15 10.845 3.615
762 1 37.9575 12.6525 3.615
142 1 41.5725 9.0375 6.08583e-16
144 1 39.765 9.0375 1.8075
189 1 39.765 10.845 6.14573e-16
190 1 41.5725 12.6525 6.1637e-16
191 1 41.5725 10.845 1.8075
192 1 39.765 12.6525 1.8075
718 1 41.5725 9.0375 3.615
765 1 39.765 10.845 3.615
766 1 41.5725 12.6525 3.615
193 1 5.98999e-16 14.46 5.93608e-16
194 1 1.8075 16.2675 5.36104e-16
195 1 1.8075 14.46 1.8075
196 1 5.46287e-16 16.2675 1.8075
197 1 3.615 14.46 6.70879e-16
200 1 3.615 16.2675 1.8075
769 1 6.73275e-16 14.46 3.615
770 1 1.8075 16.2675 3.615
773 1 3.615 14.46 3.615
198 1 5.4225 16.2675 5.43891e-16
199 1 5.4225 14.46 1.8075
201 1 7.23 14.46 6.68483e-16
204 1 7.23 16.2675 1.8075
774 1 5.4225 16.2675 3.615
777 1 7.23 14.46 3.615
202 1 9.0375 16.2675 5.51079e-16
203 1 9.0375 14.46 1.8075
205 1 10.845 14.46 6.75671e-16
206 1 12.6525 16.2675 5.41495e-16
207 1 12.6525 14.46 1.8075
208 1 10.845 16.2675 1.8075
778 1 9.0375 16.2675 3.615
781 1 10.845 14.46 3.615
782 1 12.6525 16.2675 3.615
209 1 14.46 14.46 5.91811e-16
210 1 16.2675 16.2675 2.94707e-16
211 1 16.2675 14.46 1.8075
212 1 14.46 16.2675 1.8075
785 1 14.46 14.46 3.615
786 1 16.2675 16.2675 3.615
213 1 18.075 14.46 3.68983e-16
214 1 19.8825 16.2675 2.99499e-16
215 1 19.8825 14.46 1.8075
216 1 18.075 16.2675 1.8075
789 1 18.075 14.46 3.615
790 1 19.8825 16.2675 3.615
217 1 21.69 14.46 5.15139e-16
218 1 23.4975 16.2675 2.99499e-16
219 1 23.4975 14.46 1.8075
220 1 21.69 16.2675 1.8075
221 1 25.305 14.46 3.66587e-16
224 1 25.305 16.2675 1.8075
793 1 21.69 14.46 3.615
794 1 23.4975 16.2675 3.615
797 1 25.305 14.46 3.615
222 1 27.1125 16.2675 3.01895e-16
223 1 27.1125 14.46 1.8075
225 1 28.92 14.46 5.27119e-16
228 1 28.92 16.2675 1.8075
798 1 27.1125 16.2675 3.615
801 1 28.92 14.46 3.615
226 1 30.7275 16.2675 3.90547e-16
227 1 30.7275 14.46 1.8075
229 1 32.535 14.46 5.36703e-16
230 1 34.3425 16.2675 3.95339e-16
231 1 34.3425 14.46 1.8075
232 1 32.535 16.2675 1.8075
802 1 30.7275 16.2675 3.615
805 1 32.535 14.46 3.615
806 1 34.3425 16.2675 3.615
233 1 36.15 14.46 5.27119e-16
234 1 37.9575 16.2675 3.85755e-16
235 1 37.9575 14.46 1.8075
236 1 36.15 16.2675 1.8075
809 1 36.15 14.46 3.615
810 1 37.9575 16.2675 3.615
237 1 39.765 14.46 5.42543e-16
238 1 41.5725 16.2675 3.92943e-16
239 1 41.5725 14.46 1.8075
240 1 39.765 16.2675 1.8075
813 1 39.765 14.46 3.615
814 1 41.5725 16.2675 3.615
241 1 3.95339e-16 18.075 3.81562e-16
242 1 1.8075 19.8825 5.30863e-16
243 1 1.8075 18.075 1.8075
244 1 5.43891e-16 19.8825 1.8075
245 1 3.615 18.075 4.69615e-16
248 1 3.615 19.8825 1.8075
817 1 4.76803e-16 18.075 3.615
818 1 1.8075 19.8825 3.615
821 1 3.615 18.075 3.615
246 1 5.4225 19.8825 5.39099e-16
247 1 5.4225 18.075 1.8075
249 1 7.23 18.075 4.74407e-16
252 1 7.23 19.8825 1.8075
822 1 5.4225 19.8825 3.615
825 1 7.23 18.075 3.615
250 1 9.0375 19.8825 5.41495e-16
251 1 9.0375 18.075 1.8075
253 1 10.845 18.075 4.72011e-16
254 1 12.6525 19.8825 5.43891e-16
255 1 12.6525 18.075 1.8075
256 1 10.845 19.8825 1.8075
826 1 9.0375 19.8825 3.615
829 1 10.845 18.075 3.615
830 1 12.6525 19.8825 3.615
257 1 14.46 18.075 3.80963e-16
258 1 16.2675 19.8825 3.01895e-16
259 1 16.2675 18.075 1.8075
260 1 14.46 19.8825 1.8075
833 1 14.46 18.075 3.615
834 1 16.2675 19.8825 3.615
261 1 18.075 18.075 1.70116e-16
262 1 19.8825 19.8825 3.04291e-16
263 1 19.8825 18.075 1.8075
264 1 18.075 19.8825 1.8075
837 1 18.075 18.075 3.615
838 1 19.8825 19.8825 3.615
265 1 21.69 18.075 2.92311e-16
266 1 23.4975 19.8825 3.01895e-16
267 1 23.4975 18.075 1.8075
268 1 21.69 19.8825 1.8075
269 1 25.305 18.075 1.77304e-16
272 1 25.305 19.8825 1.8075
841 1 21.69 18.075 3.615
842 1 23.4975 19.8825 3.615
845 1 25.305 18.075 3.615
270 1 27.1125 19.8825 3.04291e-16
271 1 27.1125 18.075 1.8075
273 1 28.92 18.075 2.97103e-16
276 1 28.92 19.8825 1.8075
846 1 27.1125 19.8825 3.615
849 1 28.92 18.075 3.615
274 1 30.7275 19.8825 3.83359e-16
275 1 30.7275 18.075 1.8075
277 1 32.535 18.075 3.09083e-16
278 1 34.3425 19.8825 3.92943e-16
279 1 34.3425 18.075 1.8075
280 1 32.535 19.8825 1.8075
850 1 30.7275 19.8825 3.615
853 1 32.535 18.075 3.615
854 1 34.3425 19.8825 3.615
281 1 36.15 18.075 2.97103e-16
282 1 37.9575 19.8825 3.92943e-16
283 1 37.9575 18.075 1.8075
284 1 36.15 19.8825 1.8075
857 1 36.15 18.075 3.615
858 1 37.9575 19.8825 3.615
285 1 39.765 18.075 3.0489e-16
286 1 41.5725 19.8825 3.94141e-16
287 1 41.5725 18.075 1.8075
288 1 39.765 19.8825 1.8075
861 1 39.765 18.075 3.615
862 1 41.5725 19.8825 3.615
289 1 5.36703e-16 21.69 5.23824e-16
290 1 1.8075 23.4975 5.37601e-16
291 1 1.8075 21.69 1.8075
292 1 5.53475e-16 23.4975 1.8075
293 1 3.615 21.69 5.94207e-16
296 1 3.615 23.4975 1.8075
337 1 3.78567e-16 25.305 3.75572e-16
339 1 1.8075 25.305 1.8075
341 1 3.615 25.305 4.76803e-16
865 1 6.06187e-16 21.69 3.615
866 1 1.8075 23.4975 3.615
869 1 3.615 21.69 3.615
913 1 4.67219e-16 25.305 3.615
917 1 3.615 25.305 3.615
294 1 5.4225 23.4975 5.41495e-16
295 1 5.4225 21.69 1.8075
297 1 7.23 21.69 5.98999e-16
300 1 7.23 23.4975 1.8075
343 1 5.4225 25.305 1.8075
345 1 7.23 25.305 4.81595e-16
870 1 5.4225 23.4975 3.615
873 1 7.23 21.69 3.615
921 1 7.23 25.305 3.615
298 1 9.0375 23.4975 5.39099e-16
299 1 9.0375 21.69 1.8075
301 1 10.845 21.69 6.08583e-16
302 1 12.6525 23.4975 5.39099e-16
303 1 12.6525 21.69 1.8075
304 1 10.845 23.4975 1.8075
347 1 9.0375 25.305 1.8075
349 1 10.845 25.305 4.69615e-16
351 1 12.6525 25.305 1.8075
874 1 9.0375 23.4975 3.615
877 1 10.845 21.69 3.615
878 1 12.6525 23.4975 3.615
925 1 10.845 25.305 3.615
305 1 14.46 21.69 5.19931e-16
306 1 16.2675 23.4975 3.04291e-16
307 1 16.2675 21.69 1.8075
308 1 14.46 23.4975 1.8075
353 1 14.46 25.305 3.71379e-16
355 1 16.2675 25.305 1.8075
881 1 14.46 21.69 3.615
882 1 16.2675 23.4975 3.615
929 1 14.46 25.305 3.615
309 1 18.075 21.69 2.92311e-16
310 1 19.8825 23.4975 3.13875e-16
311 1 19.8825 21.69 1.8075
312 1 18.075 23.4975 1.8075
357 1 18.075 25.305 1.77304e-16
359 1 19.8825 25.305 1.8075
885 1 18.075 21.69 3.615
886 1 19.8825 23.4975 3.615
933 1 18.075 25.305 3.615
313 1 21.69 21.69 4.40863e-16
314 1 23.4975 23.4975 3.11479e-16
315 1 23.4975 21.69 1.8075
316 1 21.69 23.4975 1.8075
317 1 25.305 21.69 2.94707e-16
320 1 25.305 23.4975 1.8075
361 1 21.69 25.305 2.80331e-16
363 1 23.4975 25.305 1.8075
365 1 25.305 25.305 1.797e-16
889 1 21.69 21.69 3.615
890 1 23.4975 23.4975 3.615
893 1 25.305 21.69 3.615
937 1 21.69 25.305 3.615
941 1 25.305 25.305 3.615
318 1 27.1125 23.4975 3.01895e-16
319 1 27.1125 21.69 1.8075
321 1 28.92 21.69 4.57635e-16
324 1 28.92 23.4975 1.8075
367 1 27.1125 25.305 1.8075
369 1 28.92 25.305 2.94707e-16
894 1 27.1125 23.4975 3.615
897 1 28.92 21.69 3.615
945 1 28.92 25.305 3.615
322 1 30.7275 23.4975 3.80963e-16
323 1 30.7275 21.69 1.8075
325 1 32.535 21.69 4.57635e-16
326 1 34.3425 23.4975 3.85755e-16
327 1 34.3425 21.69 1.8075
328 1 32.535 23.4975 1.8075
371 1 30.7275 25.305 1.8075
373 1 32.535 25.305 2.97103e-16
375 1 34.3425 25.305 1.8075
898 1 30.7275 23.4975 3.615
901 1 32.535 21.69 3.615
902 1 34.3425 23.4975 3.615
949 1 32.535 25.305 3.615
329 1 36.15 21.69 4.62427e-16
330 1 37.9575 23.4975 3.97735e-16
331 1 37.9575 21.69 1.8075
332 1 36.15 23.4975 1.8075
377 1 36.15 25.305 2.97103e-16
379 1 37.9575 25.305 1.8075
905 1 36.15 21.69 3.615
906 1 37.9575 23.4975 3.615
953 1 36.15 25.305 3.615
333 1 39.765 21.69 4.59582e-16
334 1 41.5725 23.4975 3.86354e-16
335 1 41.5725 21.69 1.8075
336 1 39.765 23.4975 1.8075
381 1 39.765 25.305 3.09982e-16
383 1 41.5725 25.305 1.8075
909 1 39.765 21.69 3.615
910 1 41.5725 23.4975 3.615
957 1 39.765 25.305 3.615
338 1 1.8075 27.1125 5.23824e-16
340 1 5.34307e-16 27.1125 1.8075
344 1 3.615 27.1125 1.8075
385 1 5.43891e-16 28.92 5.25921e-16
387 1 1.8075 28.92 1.8075
389 1 3.615 28.92 5.91811e-16
914 1 1.8075 27.1125 3.615
961 1 6.02593e-16 28.92 3.615
965 1 3.615 28.92 3.615
342 1 5.4225 27.1125 5.36703e-16
348 1 7.23 27.1125 1.8075
391 1 5.4225 28.92 1.8075
393 1 7.23 28.92 5.96603e-16
918 1 5.4225 27.1125 3.615
969 1 7.23 28.92 3.615
346 1 9.0375 27.1125 5.39099e-16
350 1 12.6525 27.1125 5.31911e-16
352 1 10.845 27.1125 1.8075
395 1 9.0375 28.92 1.8075
397 1 10.845 28.92 6.03791e-16
399 1 12.6525 28.92 1.8075
922 1 9.0375 27.1125 3.615
926 1 12.6525 27.1125 3.615
973 1 10.845 28.92 3.615
354 1 16.2675 27.1125 3.09083e-16
356 1 14.46 27.1125 1.8075
401 1 14.46 28.92 5.17535e-16
403 1 16.2675 28.92 1.8075
930 1 16.2675 27.1125 3.615
977 1 14.46 28.92 3.615
358 1 19.8825 27.1125 3.01895e-16
360 1 18.075 27.1125 1.8075
405 1 18.075 28.92 2.97103e-16
407 1 19.8825 28.92 1.8075
934 1 19.8825 27.1125 3.615
981 1 18.075 28.92 3.615
362 1 23.4975 27.1125 3.04291e-16
364 1 21.69 27.1125 1.8075
368 1 25.305 27.1125 1.8075
409 1 21.69 28.92 4.38467e-16
411 1 23.4975 28.92 1.8075
413 1 25.305 28.92 2.94707e-16
938 1 23.4975 27.1125 3.615
985 1 21.69 28.92 3.615
989 1 25.305 28.92 3.615
366 1 27.1125 27.1125 3.06687e-16
372 1 28.92 27.1125 1.8075
415 1 27.1125 28.92 1.8075
417 1 28.92 28.92 4.67219e-16
942 1 27.1125 27.1125 3.615
993 1 28.92 28.92 3.615
370 1 30.7275 27.1125 3.80963e-16
374 1 34.3425 27.1125 3.92943e-16
376 1 32.535 27.1125 1.8075
419 1 30.7275 28.92 1.8075
421 1 32.535 28.92 4.67219e-16
423 1 34.3425 28.92 1.8075
946 1 30.7275 27.1125 3.615
950 1 34.3425 27.1125 3.615
997 1 32.535 28.92 3.615
378 1 37.9575 27.1125 3.97735e-16
380 1 36.15 27.1125 1.8075
425 1 36.15 28.92 4.72011e-16
427 1 37.9575 28.92 1.8075
954 1 37.9575 27.1125 3.615
1001 1 36.15 28.92 3.615
382 1 41.5725 27.1125 3.83359e-16
384 1 39.765 27.1125 1.8075
429 1 39.765 28.92 4.67219e-16
431 1 41.5725 28.92 1.8075
958 1 41.5725 27.1125 3.615
1005 1 39.765 28.92 3.615
386 1 1.8075 30.7275 5.95704e-16
388 1 6.03791e-16 30.7275 1.8075
392 1 3.615 30.7275 1.8075
433 1 5.55871e-16 32.535 5.48683e-16
434 1 1.8075 34.3425 6.10979e-16
435 1 1.8075 32.535 1.8075
436 1 6.22959e-16 34.3425 1.8075
437 1 3.615 32.535 6.22959e-16
440 1 3.615 34.3425 1.8075
962 1 1.8075 30.7275 3.615
1009 1 6.20563e-16 32.535 3.615
1010 1 1.8075 34.3425 3.615
1013 1 3.615 32.535 3.615
390 1 5.4225 30.7275 6.06187e-16
396 1 7.23 30.7275 1.8075
438 1 5.4225 34.3425 6.25355e-16
439 1 5.4225 32.535 1.8075
441 1 7.23 32.535 6.27751e-16
444 1 7.23 34.3425 1.8075
966 1 5.4225 30.7275 3.615
1014 1 5.4225 34.3425 3.615
1017 1 7.23 32.535 3.615
394 1 9.0375 30.7275 6.08583e-16
398 1 12.6525 30.7275 6.08583e-16
400 1 10.845 30.7275 1.8075
442 1 9.0375 34.3425 6.22959e-16
443 1 9.0375 32.535 1.8075
445 1 10.845 32.535 6.25355e-16
446 1 12.6525 34.3425 6.20563e-16
447 1 12.6525 32.535 1.8075
448 1 10.845 34.3425 1.8075
970 1 9.0375 30.7275 3.615
974 1 12.6525 30.7275 3.615
1018 1 9.0375 34.3425 3.615
1021 1 10.845 32.535 3.615
1022 1 12.6525 34.3425 3.615
402 1 16.2675 30.7275 3.90547e-16
404 1 14.46 30.7275 1.8075
449 1 14.46 32.535 5.41495e-16
450 1 16.2675 34.3425 4.00131e-16
451 1 16.2675 32.535 1.8075
452 1 14.46 34.3425 1.8075
978 1 16.2675 30.7275 3.615
1025 1 14.46 32.535 3.615
1026 1 16.2675 34.3425 3.615
406 1 19.8825 30.7275 3.83359e-16
408 1 18.075 30.7275 1.8075
453 1 18.075 32.535 3.04291e-16
454 1 19.8825 34.3425 3.97735e-16
455 1 19.8825 32.535 1.8075
456 1 18.075 34.3425 1.8075
982 1 19.8825 30.7275 3.615
1029 1 18.075 32.535 3.615
1030 1 19.8825 34.3425 3.615
410 1 23.4975 30.7275 3.80963e-16
412 1 21.69 30.7275 1.8075
416 1 25.305 30.7275 1.8075
457 1 21.69 32.535 4.62427e-16
458 1 23.4975 34.3425 3.88151e-16
459 1 23.4975 32.535 1.8075
460 1 21.69 34.3425 1.8075
461 1 25.305 32.535 2.99499e-16
464 1 25.305 34.3425 1.8075
986 1 23.4975 30.7275 3.615
1033 1 21.69 32.535 3.615
1034 1 23.4975 34.3425 3.615
1037 1 25.305 32.535 3.615
414 1 27.1125 30.7275 3.83359e-16
420 1 28.92 30.7275 1.8075
462 1 27.1125 34.3425 3.95339e-16
463 1 27.1125 32.535 1.8075
465 1 28.92 32.535 4.62427e-16
468 1 28.92 34.3425 1.8075
990 1 27.1125 30.7275 3.615
1038 1 27.1125 34.3425 3.615
1041 1 28.92 32.535 3.615
418 1 30.7275 30.7275 4.69615e-16
422 1 34.3425 30.7275 4.74407e-16
424 1 32.535 30.7275 1.8075
466 1 30.7275 34.3425 4.74407e-16
467 1 30.7275 32.535 1.8075
469 1 32.535 32.535 4.76803e-16
470 1 34.3425 34.3425 4.74407e-16
471 1 34.3425 32.535 1.8075
472 1 32.535 34.3425 1.8075
994 1 30.7275 30.7275 3.615
998 1 34.3425 30.7275 3.615
1042 1 30.7275 34.3425 3.615
1045 1 32.535 32.535 3.615
1046 1 34.3425 34.3425 3.615
426 1 37.9575 30.7275 4.81595e-16
428 1 36.15 30.7275 1.8075
473 1 36.15 32.535 4.83991e-16
474 1 37.9575 34.3425 4.83991e-16
475 1 37.9575 32.535 1.8075
476 1 36.15 34.3425 1.8075
1002 1 37.9575 30.7275 3.615
1049 1 36.15 32.535 3.615
1050 1 37.9575 34.3425 3.615
430 1 41.5725 30.7275 4.69615e-16
432 1 39.765 30.7275 1.8075
477 1 39.765 32.535 4.82793e-16
478 1 41.5725 34.3425 4.80996e-16
479 1 41.5725 32.535 1.8075
480 1 39.765 34.3425 1.8075
1006 1 41.5725 30.7275 3.615
1053 1 39.765 32.535 3.615
1054 1 41.5725 34.3425 3.615
481 1 5.48683e-16 36.15 5.39698e-16
482 1 1.8075 37.9575 6.1652e-16
483 1 1.8075 36.15 1.8075
484 1 6.25355e-16 37.9575 1.8075
485 1 3.615 36.15 6.06187e-16
488 1 3.615 37.9575 1.8075
1057 1 6.15771e-16 36.15 3.615
1058 1 1.8075 37.9575 3.615
1061 1 3.615 36.15 3.615
486 1 5.4225 37.9575 6.22959e-16
487 1 5.4225 36.15 1.8075
489 1 7.23 36.15 6.10979e-16
492 1 7.23 37.9575 1.8075
1062 1 5.4225 37.9575 3.615
1065 1 7.23 36.15 3.615
490 1 9.0375 37.9575 6.25355e-16
491 1 9.0375 36.15 1.8075
493 1 10.845 36.15 6.13375e-16
494 1 12.6525 37.9575 6.27751e-16
495 1 12.6525 36.15 1.8075
496 1 10.845 37.9575 1.8075
1066 1 9.0375 37.9575 3.615
1069 1 10.845 36.15 3.615
1070 1 12.6525 37.9575 3.615
497 1 14.46 36.15 5.31911e-16
498 1 16.2675 37.9575 3.92943e-16
499 1 16.2675 36.15 1.8075
500 1 14.46 37.9575 1.8075
1073 1 14.46 36.15 3.615
1074 1 16.2675 37.9575 3.615
501 1 18.075 36.15 2.97103e-16
502 1 19.8825 37.9575 3.90547e-16
503 1 19.8825 36.15 1.8075
504 1 18.075 37.9575 1.8075
1077 1 18.075 36.15 3.615
1078 1 19.8825 37.9575 3.615
505 1 21.69 36.15 4.52843e-16
506 1 23.4975 37.9575 3.88151e-16
507 1 23.4975 36.15 1.8075
508 1 21.69 37.9575 1.8075
509 1 25.305 36.15 2.87519e-16
512 1 25.305 37.9575 1.8075
1081 1 21.69 36.15 3.615
1082 1 23.4975 37.9575 3.615
1085 1 25.305 36.15 3.615
510 1 27.1125 37.9575 3.88151e-16
511 1 27.1125 36.15 1.8075
513 1 28.92 36.15 4.57635e-16
516 1 28.92 37.9575 1.8075
1086 1 27.1125 37.9575 3.615
1089 1 28.92 36.15 3.615
514 1 30.7275 37.9575 4.76803e-16
515 1 30.7275 36.15 1.8075
517 1 32.535 36.15 4.74407e-16
518 1 34.3425 37.9575 4.81595e-16
519 1 34.3425 36.15 1.8075
520 1 32.535 37.9575 1.8075
1090 1 30.7275 37.9575 3.615
1093 1 32.535 36.15 3.615
1094 1 34.3425 37.9575 3.615
521 1 36.15 36.15 4.72011e-16
522 1 37.9575 37.9575 4.81595e-16
523 1 37.9575 36.15 1.8075
524 1 36.15 37.9575 1.8075
1097 1 36.15 36.15 3.615
1098 1 37.9575 37.9575 3.615
525 1 39.765 36.15 4.789e-16
526 1 41.5725 37.9575 4.88783e-16
527 1 41.5725 36.15 1.8075
528 1 39.765 37.9575 1.8075
1101 1 39.765 36.15 3.615
1102 1 41.5725 37.9575 3.615
529 1 5.51079e-16 39.765 5.45388e-16
530 1 1.8075 41.5725 6.18317e-16
531 1 1.8075 39.765 1.8075
532 1 6.08583e-16 41.5725 1.8075
533 1 3.615 39.765 6.12177e-16
536 1 3.615 41.5725 1.8075
1105 1 6.20563e-16 39.765 3.615
1106 1 1.8075 41.5725 3.615
1109 1 3.615 39.765 3.615
534 1 5.4225 41.5725 6.14573e-16
535 1 5.4225 39.765 1.8075
537 1 7.23 39.765 6.12177e-16
540 1 7.23 41.5725 1.8075
1110 1 5.4225 41.5725 3.615
1113 1 7.23 39.765 3.615
538 1 9.0375 41.5725 6.14872e-16
539 1 9.0375 39.765 1.8075
541 1 10.845 39.765 6.12177e-16
542 1 12.6525 41.5725 6.15172e-16
543 1 12.6525 39.765 1.8075
544 1 10.845 41.5725 1.8075
1114 1 9.0375 41.5725 3.615
1117 1 10.845 39.765 3.615
1118 1 12.6525 41.5725 3.615
545 1 14.46 39.765 5.40896e-16
546 1 16.2675 41.5725 3.93542e-16
547 1 16.2675 39.765 1.8075
548 1 14.46 41.5725 1.8075
1121 1 14.46 39.765 3.615
1122 1 16.2675 41.5725 3.615
549 1 18.075 39.765 3.07586e-16
550 1 19.8825 41.5725 3.98933e-16
551 1 19.8825 39.765 1.8075
552 1 18.075 41.5725 1.8075
1125 1 18.075 39.765 3.615
1126 1 19.8825 41.5725 3.615
553 1 21.69 39.765 4.57036e-16
554 1 23.4975 41.5725 3.93542e-16
555 1 23.4975 39.765 1.8075
556 1 21.69 41.5725 1.8075
557 1 25.305 39.765 3.12378e-16
560 1 25.305 41.5725 1.8075
1129 1 21.69 39.765 3.615
1130 1 23.4975 41.5725 3.615
1133 1 25.305 39.765 3.615
558 1 27.1125 41.5725 3.91146e-16
559 1 27.1125 39.765 1.8075
561 1 28.92 39.765 4.64823e-16
564 1 28.92 41.5725 1.8075
1134 1 27.1125 41.5725 3.615
1137 1 28.92 39.765 3.615
562 1 30.7275 41.5725 4.70813e-16
563 1 30.7275 39.765 1.8075
565 1 32.535 39.765 4.80397e-16
566 1 34.3425 41.5725 4.76204e-16
567 1 34.3425 39.765 1.8075
568 1 32.535 41.5725 1.8075
1138 1 30.7275 41.5725 3.615
1141 1 32.535 39.765 3.615
1142 1 34.3425 41.5725 3.615
569 1 36.15 39.765 4.73509e-16
570 1 37.9575 41.5725 4.80996e-16
571 1 37.9575 39.765 1.8075
572 1 36.15 41.5725 1.8075
1145 1 36.15 39.765 3.615
1146 1 37.9575 41.5725 3.615
573 1 39.765 39.765 4.87735e-16
574 1 41.5725 41.5725 4.89981e-16
575 1 41.5725 39.765 1.8075
576 1 39.765 41.5725 1.8075
1149 1 39.765 39.765 3.615
1150 1 41.5725 41.5725 3.615
579 1 1.8075 7.51145e-16 5.4225
580 1 7.59531e-16 1.8075 5.4225
584 1 3.615 1.8075 5.4225
627 1 1.8075 3.615 5.4225
1153 1 6.82859e-16 6.80463e-16 7.23
1154 1 1.8075 1.8075 7.23
1157 1 3.615 7.54739e-16 7.23
1201 1 7.53541e-16 3.615 7.23
1205 1 3.615 3.615 7.23
583 1 5.4225 7.59531e-16 5.4225
588 1 7.23 1.8075 5.4225
631 1 5.4225 3.615 5.4225
1158 1 5.4225 1.8075 7.23
1161 1 7.23 7.61927e-16 7.23
1209 1 7.23 3.615 7.23
587 1 9.0375 7.54739e-16 5.4225
591 1 12.6525 7.57135e-16 5.4225
592 1 10.845 1.8075 5.4225
635 1 9.0375 3.615 5.4225
639 1 12.6525 3.615 5.4225
1162 1 9.0375 1.8075 7.23
1165 1 10.845 7.61927e-16 7.23
1166 1 12.6525 1.8075 7.23
1213 1 10.845 3.615 7.23
595 1 16.2675 5.36703e-16 5.4225
596 1 14.46 1.8075 5.4225
643 1 16.2675 3.615 5.4225
1169 1 14.46 6.73275e-16 7.23
1170 1 16.2675 1.8075 7.23
1217 1 14.46 3.615 7.23
599 1 19.8825 5.39099e-16 5.4225
600 1 18.075 1.8075 5.4225
647 1 19.8825 3.615 5.4225
1173 1 18.075 4.69615e-16 7.23
1174 1 19.8825 1.8075 7.23
1221 1 18.075 3.615 7.23
603 1 23.4975 5.39099e-16 5.4225
604 1 21.69 1.8075 5.4225
608 1 25.305 1.8075 5.4225
651 1 23.4975 3.615 5.4225
1177 1 21.69 6.03791e-16 7.23
1178 1 23.4975 1.8075 7.23
1181 1 25.305 4.74407e-16 7.23
1225 1 21.69 3.615 7.23
1229 1 25.305 3.615 7.23
607 1 27.1125 5.58267e-16 5.4225
612 1 28.92 1.8075 5.4225
655 1 27.1125 3.615 5.4225
1182 1 27.1125 1.8075 7.23
1185 1 28.92 6.08583e-16 7.23
1233 1 28.92 3.615 7.23
611 1 30.7275 6.08583e-16 5.4225
615 1 34.3425 6.20563e-16 5.4225
616 1 32.535 1.8075 5.4225
659 1 30.7275 3.615 5.4225
663 1 34.3425 3.615 5.4225
1186 1 30.7275 1.8075 7.23
1189 1 32.535 6.18167e-16 7.23
1190 1 34.3425 1.8075 7.23
1237 1 32.535 3.615 7.23
619 1 37.9575 6.20563e-16 5.4225
620 1 36.15 1.8075 5.4225
667 1 37.9575 3.615 5.4225
1193 1 36.15 6.06187e-16 7.23
1194 1 37.9575 1.8075 7.23
1241 1 36.15 3.615 7.23
623 1 41.5725 6.15771e-16 5.4225
624 1 39.765 1.8075 5.4225
671 1 41.5725 3.615 5.4225
1197 1 39.765 6.11728e-16 7.23
1198 1 41.5725 1.8075 7.23
1245 1 39.765 3.615 7.23
628 1 7.57135e-16 5.4225 5.4225
632 1 3.615 5.4225 5.4225
675 1 1.8075 7.23 5.4225
1202 1 1.8075 5.4225 7.23
1249 1 7.57135e-16 7.23 7.23
1253 1 3.615 7.23 7.23
636 1 7.23 5.4225 5.4225
679 1 5.4225 7.23 5.4225
1206 1 5.4225 5.4225 7.23
1257 1 7.23 7.23 7.23
640 1 10.845 5.4225 5.4225
683 1 9.0375 7.23 5.4225
687 1 12.6525 7.23 5.4225
1210 1 9.0375 5.4225 7.23
1214 1 12.6525 5.4225 7.23
1261 1 10.845 7.23 7.23
644 1 14.46 5.4225 5.4225
691 1 16.2675 7.23 5.4225
1218 1 16.2675 5.4225 7.23
1265 1 14.46 7.23 7.23
648 1 18.075 5.4225 5.4225
695 1 19.8825 7.23 5.4225
1222 1 19.8825 5.4225 7.23
1269 1 18.075 7.23 7.23
652 1 21.69 5.4225 5.4225
656 1 25.305 5.4225 5.4225
699 1 23.4975 7.23 5.4225
1226 1 23.4975 5.4225 7.23
1273 1 21.69 7.23 7.23
1277 1 25.305 7.23 7.23
660 1 28.92 5.4225 5.4225
703 1 27.1125 7.23 5.4225
1230 1 27.1125 5.4225 7.23
1281 1 28.92 7.23 7.23
664 1 32.535 5.4225 5.4225
707 1 30.7275 7.23 5.4225
711 1 34.3425 7.23 5.4225
1234 1 30.7275 5.4225 7.23
1238 1 34.3425 5.4225 7.23
1285 1 32.535 7.23 7.23
668 1 36.15 5.4225 5.4225
715 1 37.9575 7.23 5.4225
1242 1 37.9575 5.4225 7.23
1289 1 36.15 7.23 7.23
672 1 39.765 5.4225 5.4225
719 1 41.5725 7.23 5.4225
1246 1 41.5725 5.4225 7.23
1293 1 39.765 7.23 7.23
676 1 7.54739e-16 9.0375 5.4225
680 1 3.615 9.0375 5.4225
723 1 1.8075 10.845 5.4225
724 1 7.54739e-16 12.6525 5.4225
728 1 3.615 12.6525 5.4225
1250 1 1.8075 9.0375 7.23
1297 1 7.64323e-16 10.845 7.23
1298 1 1.8075 12.6525 7.23
1301 1 3.615 10.845 7.23
684 1 7.23 9.0375 5.4225
727 1 5.4225 10.845 5.4225
732 1 7.23 12.6525 5.4225
1254 1 5.4225 9.0375 7.23
1302 1 5.4225 12.6525 7.23
1305 1 7.23 10.845 7.23
688 1 10.845 9.0375 5.4225
731 1 9.0375 10.845 5.4225
735 1 12.6525 10.845 5.4225
736 1 10.845 12.6525 5.4225
1258 1 9.0375 9.0375 7.23