ITEM: TIMESTEP
9
ITEM: NUMBER OF ATOMS
6912
ITEM: BOX BOUNDS pp pp pp
0.0000000000000000e+00 4.3380000338459396e+01
0.0000000000000000e+00 4.3380000338459396e+01
0.0000000000000000e+00 4.3380000338459396e+01
ITEM: ATOMS id type x y z c_stress[1] c_stress[2] c_stress[3] c_stress[4] c_stress[5] c_stress[6] c_voro[1]
1 1 -1.58159e-07 -1.59422e-07 -1.58131e-07 0.274055 0.27285 0.274782 -0.00716748 0.0125873 -0.0114359 11.8104
2 1 1.8075 1.8075 -1.58267e-07 0.262861 0.261465 0.263735 -0.00643608 0.0117418 -0.00643606 11.8104
3 1 1.8075 -1.58855e-07 1.8075 0.262892 0.265222 0.262121 0.00381672 -7.87524e-09 -2.20324e-10 11.8104
4 1 -1.57956e-07 1.8075 1.8075 0.261612 0.257849 0.264081 -0.00694171 -1.06393e-08 9.34829e-09 11.8104
5 1 3.615 -1.58855e-07 -1.58784e-07 0.251296 0.258958 0.257502 2.12529e-09 1.4686e-08 0.00381672 11.8104
8 1 3.615 1.8075 1.8075 0.23974 0.248434 0.2443 -3.09506e-09 1.96965e-09 7.27629e-09 11.8104
49 1 -1.57696e-07 3.615 -1.58065e-07 -0.273563 -0.165121 -0.314549 0.161755 -0.325392 0.210097 11.8104
51 1 1.8075 3.615 1.8075 0.244404 0.237975 0.245809 -0.00597534 7.90164e-09 1.2635e-09 11.8104
53 1 3.615 3.615 -1.58161e-07 0.234985 0.231711 0.239013 9.5748e-09 -7.55979e-09 -0.00597535 11.8104
577 1 -1.58159e-07 -1.59422e-07 3.615 0.261051 0.259846 0.256344 -0.00716753 -0.0125873 0.0114359 11.8104
578 1 1.8075 1.8075 3.615 0.249857 0.248461 0.245297 -0.00643607 -0.0117418 0.00643606 11.8104
581 1 3.615 -1.58855e-07 3.615 0.238292 0.245954 0.239064 6.11706e-09 2.26016e-09 -0.00381671 11.8104
625 1 -1.57696e-07 3.615 3.615 -0.286567 -0.178125 -0.332987 0.161756 0.325392 -0.210097 11.8104
629 1 3.615 3.615 3.615 0.221981 0.218707 0.220575 7.343e-09 1.79934e-08 0.00597535 11.8104
6 1 5.4225 1.8075 -1.58267e-07 0.236599 0.242551 0.244821 0.00643607 -0.0117417 -0.0064361 11.8104
7 1 5.4225 -1.58855e-07 1.8075 0.23663 0.246309 0.243208 -0.00381669 -1.04642e-08 -2.44581e-10 11.8104
9 1 7.23 -1.59422e-07 -1.58131e-07 0.222608 0.236247 0.238179 0.00716751 -0.0125873 -0.0114359 11.8104
12 1 7.23 1.8075 1.8075 0.210165 0.221245 0.227478 0.00694173 4.02109e-10 1.0763e-08 11.8104
55 1 5.4225 3.615 1.8075 0.218141 0.219062 0.226896 0.00597535 -8.65779e-10 3.18512e-09 11.8104
57 1 7.23 3.615 -1.58065e-07 -0.325011 -0.201724 -0.351152 -0.161755 0.325392 0.210097 11.8104
582 1 5.4225 1.8075 3.615 0.223595 0.229547 0.226384 0.00643607 0.0117418 0.00643609 11.8104
585 1 7.23 -1.59422e-07 3.615 0.209604 0.223243 0.219741 0.00716752 0.0125874 0.0114359 11.8104
633 1 7.23 3.615 3.615 -0.338015 -0.214728 -0.36959 -0.161756 -0.325392 -0.210097 11.8104
10 1 9.0375 1.8075 -1.58085e-07 -0.41081 -0.347506 -0.493368 -0.200995 0.360381 0.312414 11.8104
11 1 9.0375 -1.59696e-07 1.8075 0.196794 0.21427 0.218995 0.00794778 -1.15628e-08 1.70206e-08 11.8104
13 1 10.845 -1.59886e-07 -1.58085e-07 -0.400883 -0.417417 -0.51745 -0.200995 0.312414 0.360381 11.8104
14 1 12.6525 1.8075 -9.34362e-08 -0.249754 -0.128132 0.106324 0.253574 -0.68572 -0.734293 11.8104
15 1 12.6525 -1.60712e-07 1.8075 -0.431356 -0.489825 -0.656718 -0.147312 -6.98002e-08 -5.74988e-08 11.8104
16 1 10.845 1.8075 1.8075 -0.507867 -0.478573 -0.715446 -0.161255 -6.72873e-08 -6.43499e-08 11.8104
59 1 9.0375 3.615 1.8075 -0.466543 -0.356475 -0.615961 -0.147312 -9.0137e-08 -4.60577e-08 11.8104
61 1 10.845 3.615 -9.34362e-08 -0.140751 -0.198955 0.123 0.253574 -0.734293 -0.68572 11.8104
63 1 12.6525 3.615 1.8075 -1.09832 -1.06419 -0.962586 -0.100374 2.30362e-07 2.50068e-07 11.8104
586 1 9.0375 1.8075 3.615 -0.423814 -0.36051 -0.511806 -0.200995 -0.360381 -0.312414 11.8104
589 1 10.845 -1.59886e-07 3.615 -0.413886 -0.430421 -0.535888 -0.200995 -0.312414 -0.360381 11.8104
590 1 12.6525 1.8075 3.615 -0.262757 -0.141135 0.0878871 0.253574 0.685721 0.734293 11.8104
637 1 10.845 3.615 3.615 -0.153754 -0.211958 0.104563 0.253574 0.734293 0.685721 11.8104
17 1 14.46 -2.04119e-07 -1.05989e-07 -0.352716 -0.110328 0.00356711 0.205293 -0.490691 -0.602426 11.8104
18 1 16.2675 1.8075 -9.12186e-08 -11.975 -15.3732 -19.2724 -1.61243 6.79654 10.1689 11.8104
19 1 16.2675 -1.91386e-07 1.8075 -0.891656 -0.773573 -0.736644 -0.0627176 1.40034e-07 2.13742e-07 11.8104
20 1 14.46 1.8075 1.8075 -1.06279 -0.974419 -0.906021 -0.0896997 2.13938e-07 2.42904e-07 11.8104
65 1 14.46 3.615 -7.99817e-08 -15.5086 -16.8264 -22.8316 -1.85628 9.49729 10.8176 11.8104
67 1 16.2675 3.615 1.8075 -6.60514 -7.56119 -10.4736 0.623956 -7.71771e-07 -9.35824e-07 11.8104
593 1 14.46 -2.04119e-07 3.615 -0.36572 -0.123331 -0.01487 0.205294 0.490691 0.602427 11.8104
594 1 16.2675 1.8075 3.615 -11.988 -15.3862 -19.2908 -1.61243 -6.79654 -10.1689 11.8104
641 1 14.46 3.615 3.615 -15.5216 -16.8394 -22.85 -1.85628 -9.49729 -10.8176 11.8104
21 1 18.075 -2.09432e-07 -1.09507e-07 -7.62147 -11.6281 -13.5163 -1.1991 3.81648 7.8328 11.8104
22 1 19.8825 1.8075 5.66406e-07 -18.8717 -19.2023 -19.735 -3.07811 -0.465347 5.77487 11.8104
23 1 19.8825 -2.38109e-07 1.8075 -3.25553 -5.04406 -6.17907 0.272941 -3.18905e-07 -5.94455e-07 11.8104
24 1 18.075 1.8075 1.8075 -5.05309 -6.68178 -8.68779 0.464139 -5.49438e-07 -8.21262e-07 11.8104
69 1 18.075 3.615 8.32286e-07 -25.4387 -25.397 -26.3367 -4.30978 0.739988 5.6889 11.8104
71 1 19.8825 3.615 1.8075 -24.3282 -33.7797 -54.0559 1.7468 -2.37308e-06 -4.46125e-06 11.8104
597 1 18.075 -2.09432e-07 3.615 -7.63448 -11.6411 -13.5347 -1.1991 -3.81648 -7.8328 11.8104
598 1 19.8825 1.8075 3.615 -18.8847 -19.2153 -19.7534 -3.07811 0.46535 -5.77487 11.8104
645 1 18.075 3.615 3.615 -25.4517 -25.41 -26.3552 -4.30979 -0.739983 -5.68889 11.8104
25 1 21.69 -5.35142e-07 2.73913e-07 -11.4965 -12.1396 -12.2 -1.74185 -0.889948 4.55891 11.8104
28 1 21.69 1.8075 1.8075 -15.0626 -24.9682 -36.9395 0.982426 -1.16055e-06 -3.37721e-06 11.8104
73 1 21.69 3.615 4.01701e-06 -24.1875 -17.6646 -2.58696 -5.21171 0.190563 1.15353 11.8104
601 1 21.69 -5.35142e-07 3.615 -11.5095 -12.1526 -12.2184 -1.74186 0.88995 -4.55891 11.8104
649 1 21.69 3.615 3.615 -24.2005 -17.6776 -2.60538 -5.21171 -0.19056 -1.15353 11.8104
26 1 23.4975 1.8075 2.26781e-06 -20.2903 -18.043 -10.8406 -2.26392 0.685151 5.31576 11.8104
27 1 23.4975 -1.95663e-07 1.8075 -7.51442 -15.0312 -20.5489 0.356133 -3.84222e-07 -2.01794e-06 11.8104
29 1 25.305 -1.05711e-06 9.1146e-07 -13.2932 -14.1593 -10.1923 -7.48937e-09 8.09397e-08 5.3088 11.8104
32 1 25.305 1.8075 1.8075 -18.849 -26.7276 -40.6709 -4.28356e-08 1.00164e-08 -3.21543e-06 11.8104
75 1 23.4975 3.615 1.8075 -32.8307 -40.9768 -66.1267 0.55609 -5.89464e-07 -4.54874e-06 11.8104
77 1 25.305 3.615 4.42366e-06 -18.7085 -14.6806 -7.74112 1.3136e-07 7.98402e-07 3.98695 11.8104
602 1 23.4975 1.8075 3.615 -20.3033 -18.056 -10.859 -2.26392 -0.68515 -5.31575 11.8104
605 1 25.305 -1.05711e-06 3.615 -13.3062 -14.1723 -10.2107 8.86398e-10 -6.93845e-08 -5.3088 11.8104
653 1 25.305 3.615 3.615 -18.7215 -14.6936 -7.75954 1.28419e-07 -7.79753e-07 -3.98695 11.8104
30 1 27.1125 1.8075 2.26781e-06 -20.1981 -17.9794 -10.777 2.26392 -0.685151 5.31576 11.8104
31 1 27.1125 -1.95663e-07 1.8075 -7.42222 -14.9675 -20.4852 -0.356133 3.93633e-07 -2.00899e-06 11.8104
33 1 28.92 -5.35142e-07 2.73913e-07 -11.3719 -12.0492 -12.1096 1.74185 0.889948 4.55891 11.8104
36 1 28.92 1.8075 1.8075 -14.938 -24.8778 -36.8491 -0.982426 1.1802e-06 -3.36777e-06 11.8104
79 1 27.1125 3.615 1.8075 -32.7385 -40.9131 -66.0631 -0.55609 5.88363e-07 -4.56718e-06 11.8104
81 1 28.92 3.615 4.01701e-06 -24.0629 -17.5742 -2.49661 5.21171 -0.190563 1.15353 11.8104
606 1 27.1125 1.8075 3.615 -20.2111 -17.9924 -10.7954 2.26392 0.68515 -5.31575 11.8104
609 1 28.92 -5.35142e-07 3.615 -11.3849 -12.0622 -12.1281 1.74186 -0.889949 -4.55891 11.8104
657 1 28.92 3.615 3.615 -24.0759 -17.5872 -2.51503 5.21171 0.190561 -1.15353 11.8104
34 1 30.7275 1.8075 5.66406e-07 -18.7115 -19.0856 -19.6183 3.07811 0.465346 5.77487 11.8104
35 1 30.7275 -2.38109e-07 1.8075 -3.09526 -4.9274 -6.06241 -0.272941 3.30679e-07 -6.10831e-07 11.8104
37 1 32.535 -2.09432e-07 -1.09507e-07 -7.41239 -11.4806 -13.3687 1.1991 -3.81648 7.8328 11.8104
38 1 34.3425 1.8075 -9.12186e-08 -11.7894 -15.2394 -19.1387 1.61243 -6.79653 10.1689 11.8104
39 1 34.3425 -1.91386e-07 1.8075 -0.706101 -0.639826 -0.602898 0.0627176 -1.56504e-07 2.11852e-07 11.8104
40 1 32.535 1.8075 1.8075 -4.844 -6.53426 -8.54027 -0.464139 5.69355e-07 -8.12494e-07 11.8104
83 1 30.7275 3.615 1.8075 -24.1679 -33.663 -53.9392 -1.7468 2.37787e-06 -4.48233e-06 11.8104
85 1 32.535 3.615 8.32286e-07 -25.2296 -25.2494 -26.1892 4.30978 -0.73999 5.6889 11.8104
87 1 34.3425 3.615 1.8075 -6.41958 -7.42745 -10.3399 -0.623955 7.65156e-07 -9.16735e-07 11.8104
610 1 30.7275 1.8075 3.615 -18.7245 -19.0986 -19.6367 3.07811 -0.465349 -5.77487 11.8104
613 1 32.535 -2.09432e-07 3.615 -7.42539 -11.4936 -13.3872 1.1991 3.81648 -7.8328 11.8104
614 1 34.3425 1.8075 3.615 -11.8024 -15.2524 -19.1571 1.61243 6.79654 -10.1689 11.8104
661 1 32.535 3.615 3.615 -25.2426 -25.2624 -26.2077 4.30979 0.739985 -5.68889 11.8104
41 1 36.15 -2.04119e-07 -1.05989e-07 -0.199751 0.000364741 0.11426 -0.205293 0.490691 -0.602426 11.8104
42 1 37.9575 1.8075 -9.34362e-08 -0.125766 -0.0382675 0.196188 -0.253574 0.68572 -0.734292 11.8104
43 1 37.9575 -1.60712e-07 1.8075 -0.307367 -0.39996 -0.566853 0.147312 7.81882e-08 -5.22181e-08 11.8104
44 1 36.15 1.8075 1.8075 -0.909825 -0.863726 -0.795329 0.0896997 -1.94466e-07 2.35968e-07 11.8104
89 1 36.15 3.615 -7.99816e-08 -15.3556 -16.7157 -22.7209 1.85628 -9.49729 10.8176 11.8104
91 1 37.9575 3.615 1.8075 -0.974329 -0.974329 -0.872721 0.100374 -2.57311e-07 2.54765e-07 11.8104
617 1 36.15 -2.04119e-07 3.615 -0.212754 -0.0126385 0.0958227 -0.205294 -0.490691 0.602426 11.8104
618 1 37.9575 1.8075 3.615 -0.13877 -0.0512706 0.177751 -0.253574 -0.68572 0.734293 11.8104
665 1 36.15 3.615 3.615 -15.3686 -16.7287 -22.7393 1.85628 9.49729 -10.8176 11.8104
45 1 39.765 -1.59886e-07 -1.58085e-07 -0.298398 -0.344227 -0.444261 0.200995 -0.312414 0.360381 11.8104
46 1 41.5725 1.8075 -1.58085e-07 -0.344227 -0.298398 -0.444261 0.200995 -0.360381 0.312414 11.8104
47 1 41.5725 -1.59696e-07 1.8075 0.263377 0.263377 0.268102 -0.00794776 -2.09784e-08 3.15176e-09 11.8104
48 1 39.765 1.8075 1.8075 -0.405383 -0.405383 -0.642256 0.161255 4.33868e-08 -7.51827e-08 11.8104
93 1 39.765 3.615 -9.34362e-08 -0.0382675 -0.125766 0.196188 -0.253574 0.734292 -0.68572 11.8104
95 1 41.5725 3.615 1.8075 -0.39996 -0.307367 -0.566853 0.147312 5.23182e-08 -5.05658e-08 11.8104
621 1 39.765 -1.59886e-07 3.615 -0.311402 -0.357231 -0.462699 0.200995 0.312414 -0.360381 11.8104
622 1 41.5725 1.8075 3.615 -0.357231 -0.311402 -0.462699 0.200995 0.360381 -0.312414 11.8104
669 1 39.765 3.615 3.615 -0.0512707 -0.13877 0.177751 -0.253574 -0.734293 0.68572 11.8104
50 1 1.8075 5.4225 -1.57967e-07 -0.121979 -0.00843482 -0.121105 0.10373 -0.229275 0.10373 11.8104
52 1 -1.57121e-07 5.4225 1.8075 -0.283504 -0.142915 -0.369748 0.110818 5.20847e-08 -3.37772e-08 11.8104
56 1 3.615 5.4225 1.8075 0.217625 0.210975 0.222186 1.06256e-08 4.42427e-09 -1.10089e-08 11.8104
97 1 -1.26803e-07 7.23 -1.24953e-07 -0.013409 -0.208155 0.0107354 -0.131572 0.358924 -0.255411 11.8104
99 1 1.8075 7.23 1.8075 -0.118757 0.00244319 -0.145484 0.0680488 2.50348e-08 -2.69071e-08 11.8104
101 1 3.615 7.23 -1.57722e-07 -0.156309 -0.00382149 -0.124148 7.78213e-11 2.99668e-08 0.0680489 11.8104
626 1 1.8075 5.4225 3.615 -0.134983 -0.0214387 -0.139543 0.10373 0.229275 -0.10373 11.8104
673 1 -1.26803e-07 7.23 3.615 -0.0264124 -0.221159 -0.00770196 -0.131572 -0.358924 0.255411 11.8104
677 1 3.615 7.23 3.615 -0.169312 -0.0168254 -0.142586 -2.27627e-09 -3.52308e-08 -0.0680489 11.8104
54 1 5.4225 5.4225 -1.57967e-07 -0.148241 -0.0273485 -0.140019 -0.10373 0.229275 0.10373 11.8104
60 1 7.23 5.4225 1.8075 -0.334951 -0.179518 -0.406352 -0.110818 -5.72869e-08 -3.32464e-08 11.8104
103 1 5.4225 7.23 1.8075 -0.14502 -0.0164705 -0.164397 -0.0680489 -2.75452e-08 -2.40093e-08 11.8104
105 1 7.23 7.23 -1.24953e-07 -0.0648556 -0.244758 -0.0258673 0.131572 -0.358925 -0.255411 11.8104
630 1 5.4225 5.4225 3.615 -0.161245 -0.0403524 -0.158456 -0.10373 -0.229275 -0.10373 11.8104
681 1 7.23 7.23 3.615 -0.077859 -0.257762 -0.0443047 0.131572 0.358925 0.255412 11.8104
58 1 9.0375 5.4225 -1.05989e-07 -0.0662173 -0.248858 0.0651532 0.205294 -0.602426 -0.490691 11.8104
62 1 12.6525 5.4225 -7.99817e-08 -16.8396 -15.4455 -22.8107 -1.85628 10.8176 9.49729 11.8104
64 1 10.845 5.4225 1.8075 -0.966209 -0.983014 -0.868517 -0.0896996 2.40711e-07 1.98947e-07 11.8104
107 1 9.0375 7.23 1.8075 -0.706408 -0.755208 -0.652004 -0.0627175 1.81847e-07 1.44773e-07 11.8104
109 1 10.845 7.23 -9.12187e-08 -15.3419 -11.8626 -19.2119 -1.61243 10.1689 6.79654 11.8104
111 1 12.6525 7.23 1.8075 -7.55143 -6.50944 -10.4297 0.623956 -9.46863e-07 -7.75962e-07 11.8104
634 1 9.0375 5.4225 3.615 -0.0792206 -0.261861 0.0467161 0.205294 0.602427 0.490692 11.8104
638 1 12.6525 5.4225 3.615 -16.8527 -15.4585 -22.8292 -1.85628 -10.8176 -9.49729 11.8104
685 1 10.845 7.23 3.615 -15.3549 -11.8756 -19.2303 -1.61243 -10.1689 -6.79654 11.8104
66 1 16.2675 5.4225 9.89766e-07 -29.1762 -29.0785 -30.1782 -5.06393 2.53231 4.4196 11.8104
68 1 14.46 5.4225 1.8075 -7.51897 -7.4767 -11.0988 0.686444 -9.05348e-07 -9.18798e-07 11.8104
113 1 14.46 7.23 9.89766e-07 -29.0977 -29.1014 -30.1551 -5.06393 4.4196 2.53231 11.8104
115 1 16.2675 7.23 1.8075 -38.4963 -38.4445 -72.0941 2.6256 -4.66798e-06 -4.66311e-06 11.8104
642 1 16.2675 5.4225 3.615 -29.1893 -29.0915 -30.1966 -5.06393 -2.5323 -4.41959 11.8104
689 1 14.46 7.23 3.615 -29.1107 -29.1144 -30.1736 -5.06393 -4.41959 -2.5323 11.8104
70 1 19.8825 5.4225 5.64391e-06 -22.4365 -15.4183 9.52366 -8.42848 -2.26282 -3.47539 11.8104
72 1 18.075 5.4225 1.8075 -33.0326 -38.8141 -67.1828 2.37903 -3.65278e-06 -4.97834e-06 11.8104
117 1 18.075 7.23 6.63188e-06 -18.0569 -14.9675 18.644 -10.4732 -5.14868 -6.02611 11.8104
119 1 19.8825 7.23 1.8075 -57.3241 -60.3112 -105.924 1.93843 -2.84464e-06 -4.91059e-06 11.8104
646 1 19.8825 5.4225 3.61499 -22.4495 -15.4313 9.50524 -8.42848 2.26282 3.47539 11.8104
693 1 18.075 7.23 3.61499 -18.0699 -14.9805 18.6256 -10.4732 5.14869 6.02612 11.8104
76 1 21.69 5.4225 1.8075 -46.7767 -52.6563 -89.3707 1.30259 -1.62316e-06 -5.08918e-06 11.8104
121 1 21.69 7.23 8.99833e-06 0.0574279 5.01613 26.6889 -0.693371 -2.64796 -7.03859 11.8104
697 1 21.69 7.23 3.61499 0.0444405 5.00315 26.6705 -0.693371 2.64797 7.0386 11.8104
74 1 23.4975 5.4225 6.95612e-06 -11.9268 -4.42725 10.7917 -0.0286471 0.181168 -3.73264 11.8104
80 1 25.305 5.4225 1.8075 -54.051 -64.328 -106.682 -9.87541e-08 -8.85369e-10 -6.54142e-06 11.8104
123 1 23.4975 7.23 1.8075 -75.651 -84.3601 -144.927 0.85004 -1.67171e-06 -7.29665e-06 11.8103
125 1 25.305 7.23 1.08081e-05 5.36018 20.0064 63.5203 2.30624e-07 2.35988e-06 -20.3475 11.8104
650 1 23.4975 5.4225 3.61499 -11.9398 -4.44024 10.7733 -0.0286471 -0.181167 3.73265 11.8104
701 1 25.305 7.23 3.61499 5.34719 19.9934 63.5019 2.29731e-07 -2.33772e-06 20.3475 11.8104
78 1 27.1125 5.4225 6.95612e-06 -11.8346 -4.3636 10.8553 0.0286471 -0.181167 -3.73264 11.8104
84 1 28.92 5.4225 1.8075 -46.6521 -52.566 -89.2804 -1.30259 1.63408e-06 -5.09835e-06 11.8104
127 1 27.1125 7.23 1.8075 -75.5588 -84.2964 -144.864 -0.85004 1.65464e-06 -7.28782e-06 11.8103
129 1 28.92 7.23 8.99833e-06 0.181996 5.10648 26.7793 0.693371 2.64796 -7.03859 11.8104
654 1 27.1125 5.4225 3.61499 -11.8476 -4.37659 10.8369 0.0286472 0.181165 3.73265 11.8104
705 1 28.92 7.23 3.61499 0.169008 5.09349 26.7609 0.693372 -2.64797 7.0386 11.8104
82 1 30.7275 5.4225 5.64391e-06 -22.2763 -15.3016 9.64031 8.42848 2.26282 -3.47538 11.8104
86 1 34.3425 5.4225 9.89766e-07 -28.9907 -28.9447 -30.0444 5.06393 -2.53231 4.4196 11.8104
88 1 32.535 5.4225 1.8075 -32.8235 -38.6666 -67.0352 -2.37903 3.69537e-06 -4.98203e-06 11.8104
131 1 30.7275 7.23 1.8075 -57.1638 -60.1945 -105.807 -1.93843 2.84491e-06 -4.88881e-06 11.8104
133 1 32.535 7.23 6.63188e-06 -17.8478 -14.82 18.7915 10.4732 5.14868 -6.02611 11.8104
135 1 34.3425 7.23 1.8075 -38.3108 -38.3108 -71.9603 -2.6256 4.66707e-06 -4.67097e-06 11.8104
658 1 30.7275 5.4225 3.61499 -22.2893 -15.3146 9.6219 8.42848 -2.26282 3.47539 11.8104
662 1 34.3425 5.4225 3.615 -29.0037 -28.9577 -30.0629 5.06393 2.5323 -4.4196 11.8104
709 1 32.535 7.23 3.61499 -17.8608 -14.833 18.7731 10.4732 -5.14869 6.02612 11.8104
90 1 37.9575 5.4225 -7.99816e-08 -16.7157 -15.3556 -22.7209 1.85628 -10.8176 9.49729 11.8104
92 1 36.15 5.4225 1.8075 -7.36601 -7.36601 -10.9881 -0.686444 9.01836e-07 -9.12866e-07 11.8104
137 1 36.15 7.23 9.89766e-07 -28.9447 -28.9907 -30.0444 5.06393 -4.4196 2.53231 11.8104
139 1 37.9575 7.23 1.8075 -7.42745 -6.41958 -10.3399 -0.623955 9.25863e-07 -7.8037e-07 11.8104
666 1 37.9575 5.4225 3.615 -16.7287 -15.3686 -22.7393 1.85628 10.8176 -9.49729 11.8104
713 1 36.15 7.23 3.615 -28.9577 -29.0037 -30.0629 5.06393 4.4196 -2.5323 11.8104
94 1 41.5725 5.4225 -1.05989e-07 0.00036471 -0.199751 0.11426 -0.205293 0.602426 -0.490691 11.8104
96 1 39.765 5.4225 1.8075 -0.863726 -0.909825 -0.795329 0.0896997 -2.72493e-07 1.95633e-07 11.8104
141 1 39.765 7.23 -9.12186e-08 -15.2394 -11.7894 -19.1387 1.61243 -10.1689 6.79653 11.8104
143 1 41.5725 7.23 1.8075 -0.639826 -0.706101 -0.602898 0.0627176 -2.15787e-07 1.48976e-07 11.8104
670 1 41.5725 5.4225 3.615 -0.0126385 -0.212754 0.0958227 -0.205294 -0.602426 0.490691 11.8104
717 1 39.765 7.23 3.615 -15.2524 -11.8024 -19.1571 1.61243 10.1689 -6.79654 11.8104
98 1 1.8075 9.0375 -1.42125e-07 -0.0871696 -0.153117 -0.0862959 -0.0756647 0.160208 -0.0756647 11.8104
100 1 -1.3689e-07 9.0375 1.8075 -0.372666 -0.423489 -0.357034 0.0315533 -1.6318e-07 6.27226e-08 11.8104
104 1 3.615 9.0375 1.8075 -0.135941 0.0186555 -0.131381 -5.94777e-09 8.55479e-09 -1.61813e-08 11.8104
145 1 -1.24886e-07 10.845 -1.28374e-07 -6.90061 -3.67383 -7.46155 0.732872 -4.77698 1.53475 11.8104
146 1 1.8075 12.6525 -1.42359e-07 -3.14983 -1.35676 -3.14896 0.342518 -2.09844 0.342518 11.8104
147 1 1.8075 10.845 1.8075 -0.208072 -0.207528 -0.198304 3.44688e-05 -7.66818e-08 4.23919e-08 11.8104
148 1 -1.16933e-07 12.6525 1.8075 -3.05245 -1.57664 -3.53636 -0.113448 3.49963e-07 -1.57112e-07 11.8104
149 1 3.615 10.845 -1.47891e-07 -0.209129 -0.213793 -0.213462 7.51587e-08 -1.87893e-07 3.44679e-05 11.8104
152 1 3.615 12.6525 1.8075 -0.173675 -0.177246 -0.169115 3.30574e-08 -1.56754e-09 1.04225e-08 11.8104
674 1 1.8075 9.0375 3.615 -0.100173 -0.16612 -0.104733 -0.0756648 -0.160208 0.0756648 11.8104
721 1 -1.24886e-07 10.845 3.615 -6.91362 -3.68683 -7.47999 0.732872 4.77698 -1.53475 11.8104
722 1 1.8075 12.6525 3.615 -3.16283 -1.36977 -3.16739 0.342519 2.09844 -0.342519 11.8104
725 1 3.615 10.845 3.615 -0.222133 -0.226796 -0.2319 7.56757e-08 1.82344e-07 -3.44307e-05 11.8104
102 1 5.4225 9.0375 -1.42125e-07 -0.113432 -0.17203 -0.105209 0.0756648 -0.160209 -0.0756648 11.8104
108 1 7.23 9.0375 1.8075 -0.424113 -0.460093 -0.393637 -0.0315532 1.47216e-07 6.09007e-08 11.8104
150 1 5.4225 12.6525 -1.42359e-07 -3.17609 -1.37568 -3.16787 -0.342519 2.09844 0.342519 11.8104
151 1 5.4225 10.845 1.8075 -0.234334 -0.226441 -0.217218 -3.44344e-05 7.98682e-08 2.77516e-08 11.8104
153 1 7.23 10.845 -1.28374e-07 -6.95206 -3.71043 -7.49816 -0.732872 4.77698 1.53475 11.8104
156 1 7.23 12.6525 1.8075 -3.10389 -1.61324 -3.57297 0.113448 -3.62575e-07 -1.44642e-07 11.8104
678 1 5.4225 9.0375 3.615 -0.126435 -0.185034 -0.123647 0.0756649 0.160209 0.0756649 11.8104
726 1 5.4225 12.6525 3.615 -3.1891 -1.38868 -3.18631 -0.342519 -2.09844 -0.342519 11.8104
729 1 7.23 10.845 3.615 -6.96507 -3.72344 -7.5166 -0.732872 -4.77698 -1.53475 11.8104
106 1 9.0375 9.0375 -1.09507e-07 -11.5472 -7.46149 -13.4178 -1.1991 7.8328 3.81648 11.8104
110 1 12.6525 9.0375 8.32286e-07 -25.3734 -25.3195 -26.2791 -4.30979 5.68889 0.739985 11.8104
112 1 10.845 9.0375 1.8075 -6.63674 -4.91719 -8.61346 0.464139 -8.24013e-07 -5.54301e-07 11.8104
154 1 9.0375 12.6525 2.73913e-07 -12.1158 -11.421 -12.1587 -1.74186 4.55891 -0.88995 11.8104
155 1 9.0375 10.845 1.8075 -4.99398 -3.14437 -6.11152 0.272941 -6.07352e-07 -3.28318e-07 11.8104
157 1 10.845 10.845 5.66406e-07 -19.1881 -18.7846 -19.6915 -3.07811 5.77487 -0.46535 11.8104
158 1 12.6525 12.6525 4.01701e-06 -17.6982 -24.1528 -2.58646 -5.21171 1.15353 0.190561 11.8104
159 1 12.6525 10.845 1.8075 -33.787 -24.2578 -54.0291 1.7468 -4.48496e-06 -2.36724e-06 11.8104
160 1 10.845 12.6525 1.8075 -24.9803 -15.0112 -36.9223 0.982426 -3.37549e-06 -1.17581e-06 11.8104
682 1 9.0375 9.0375 3.615 -11.5602 -7.4745 -13.4363 -1.1991 -7.8328 -3.81649 11.8104
686 1 12.6525 9.0375 3.615 -25.3864 -25.3325 -26.2975 -4.30979 -5.68889 -0.73998 11.8104
730 1 9.0375 12.6525 3.615 -12.1288 -11.434 -12.1772 -1.74186 -4.55891 0.889952 11.8104
733 1 10.845 10.845 3.615 -19.2011 -18.7976 -19.7099 -3.07811 -5.77486 0.465353 11.8104
734 1 12.6525 12.6525 3.615 -17.7112 -24.1658 -2.60488 -5.21171 -1.15352 -0.190559 11.8104
114 1 16.2675 9.0375 6.63188e-06 -15.0056 -17.9815 18.6578 -10.4732 -6.02611 -5.14869 11.8104
116 1 14.46 9.0375 1.8075 -38.8196 -32.9342 -67.1459 2.37903 -4.96763e-06 -3.67879e-06 11.8104
161 1 14.46 10.845 5.64391e-06 -15.4546 -22.3869 9.52964 -8.42848 -3.47539 -2.26282 11.8104
162 1 16.2675 12.6525 8.99833e-06 4.92094 0.0482647 26.6455 -0.693371 -7.0386 -2.64797 11.8104
163 1 16.2675 10.845 1.8075 -60.3801 -57.2976 -105.941 1.93843 -4.88636e-06 -2.85501e-06 11.8104
164 1 14.46 12.6525 1.8075 -52.719 -46.7628 -89.3911 1.30259 -5.1084e-06 -1.64978e-06 11.8104
690 1 16.2675 9.0375 3.61499 -15.0186 -17.9945 18.6394 -10.4732 6.02612 5.14869 11.8104
737 1 14.46 10.845 3.61499 -15.4676 -22.3999 9.51122 -8.42848 3.4754 2.26283 11.8104
738 1 16.2675 12.6525 3.61499 4.90796 0.0352772 26.6271 -0.693371 7.03861 2.64797 11.8104
118 1 19.8825 9.0375 1.01563e-05 8.70801 10.6007 37.18 -0.717021 -5.76272 -7.88136 11.8104
120 1 18.075 9.0375 1.8075 -62.1352 -62.0736 -111.924 2.18394 -4.03863e-06 -4.06013e-06 11.8104
165 1 18.075 10.845 1.01563e-05 10.5083 8.72077 37.1491 -0.717021 -7.88135 -5.76273 11.8104
166 1 19.8825 12.6525 1.586e-05 51.3691 46.5103 138.311 -5.31062 -26.5546 -18.9192 11.8105
167 1 19.8825 10.845 1.8075 -101.481 -101.438 -184.477 1.87577 -5.74474e-06 -5.73574e-06 11.8103
168 1 18.075 12.6525 1.8075 -98.4102 -93.0341 -173.723 1.61451 -7.0784e-06 -3.71296e-06 11.8103
694 1 19.8825 9.0375 3.61499 8.69503 10.5878 37.1616 -0.717021 5.76273 7.88136 11.8104
741 1 18.075 10.845 3.61499 10.4953 8.70778 37.1307 -0.717021 7.88136 5.76273 11.8104
742 1 19.8825 12.6525 3.61498 51.3561 46.4973 138.293 -5.31062 26.5546 18.9193 11.8105
124 1 21.69 9.0375 1.8075 -93.0111 -98.2915 -173.666 1.61451 -3.68293e-06 -7.11507e-06 11.8103
169 1 21.69 10.845 1.586e-05 46.5023 51.439 138.337 -5.31061 -18.9192 -26.5546 11.8105
172 1 21.69 12.6525 1.8075 -137.117 -137.083 -253.837 1.13793 -4.83373e-06 -4.83046e-06 11.8103
745 1 21.69 10.845 3.61498 46.4894 51.426 138.319 -5.31062 18.9192 26.5546 11.8105
122 1 23.4975 9.0375 1.39666e-05 28.9717 40.4879 107.77 -3.56237 -8.94985 -26.4983 11.8105
128 1 25.305 9.0375 1.8075 -104.081 -111.394 -197.644 -1.53458e-07 8.22683e-09 -7.62771e-06 11.8103
170 1 23.4975 12.6525 2.05195e-05 86.9315 90.3678 206.779 -0.955985 -11.0077 -22.97 11.8105
171 1 23.4975 10.845 1.8075 -126.894 -131.482 -238.342 0.891274 -2.24437e-06 -6.86603e-06 11.8103
173 1 25.305 10.845 1.80083e-05 63.5915 71.6355 166.536 3.07618e-07 4.96607e-06 -27.4245 11.8105
176 1 25.305 12.6525 1.8075 -154.069 -157.158 -288.696 -1.28236e-07 8.83828e-09 -5.55507e-06 11.8103
698 1 23.4975 9.0375 3.61499 28.9587 40.4749 107.752 -3.56237 8.94985 26.4983 11.8105
746 1 23.4975 12.6525 3.61498 86.9186 90.3549 206.76 -0.955986 11.0077 22.97 11.8105
749 1 25.305 10.845 3.61498 63.5785 71.6226 166.518 3.07183e-07 -4.96943e-06 27.4245 11.8105
126 1 27.1125 9.0375 1.39666e-05 29.0639 40.5515 107.834 3.56237 8.94985 -26.4983 11.8105
132 1 28.92 9.0375 1.8075 -92.8865 -98.2011 -173.575 -1.61451 3.69727e-06 -7.1002e-06 11.8103
174 1 27.1125 12.6525 2.05195e-05 87.0237 90.4315 206.842 0.955986 11.0077 -22.97 11.8105
175 1 27.1125 10.845 1.8075 -126.802 -131.418 -238.278 -0.891274 2.23675e-06 -6.85339e-06 11.8103
177 1 28.92 10.845 1.586e-05 46.6269 51.5294 138.428 5.31062 18.9192 -26.5546 11.8105
180 1 28.92 12.6525 1.8075 -136.992 -136.992 -253.746 -1.13793 4.83596e-06 -4.8295e-06 11.8103
702 1 27.1125 9.0375 3.61499 29.0509 40.5385 107.815 3.56237 -8.94985 26.4983 11.8105
750 1 27.1125 12.6525 3.61498 87.0108 90.4185 206.824 0.955986 -11.0077 22.97 11.8105
753 1 28.92 10.845 3.61498 46.6139 51.5164 138.409 5.31062 -18.9192 26.5546 11.8105
130 1 30.7275 9.0375 1.01563e-05 8.86827 10.7174 37.2966 0.717021 5.76272 -7.88135 11.8104
134 1 34.3425 9.0375 6.63188e-06 -14.82 -17.8478 18.7915 10.4732 6.02611 -5.14868 11.8104
136 1 32.535 9.0375 1.8075 -61.9261 -61.9261 -111.776 -2.18394 4.06585e-06 -4.04276e-06 11.8104
178 1 30.7275 12.6525 1.586e-05 51.5294 46.6269 138.428 5.31062 26.5546 -18.9192 11.8105
179 1 30.7275 10.845 1.8075 -101.321 -101.321 -184.36 -1.87577 5.75001e-06 -5.73746e-06 11.8103
181 1 32.535 10.845 1.01563e-05 10.7174 8.86827 37.2966 0.717021 7.88135 -5.76272 11.8104
182 1 34.3425 12.6525 8.99833e-06 5.10648 0.181996 26.7793 0.693371 7.03859 -2.64796 11.8104
183 1 34.3425 10.845 1.8075 -60.1945 -57.1638 -105.807 -1.93843 4.87541e-06 -2.85847e-06 11.8104
184 1 32.535 12.6525 1.8075 -98.2011 -92.8865 -173.575 -1.61451 7.08867e-06 -3.71089e-06 11.8103
706 1 30.7275 9.0375 3.61499 8.85529 10.7044 37.2782 0.717022 -5.76273 7.88136 11.8104
710 1 34.3425 9.0375 3.61499 -14.833 -17.8608 18.7731 10.4732 -6.02612 5.14869 11.8104
754 1 30.7275 12.6525 3.61498 51.5164 46.6139 138.409 5.31062 -26.5546 18.9192 11.8105
757 1 32.535 10.845 3.61499 10.7044 8.85529 37.2782 0.717022 -7.88136 5.76273 11.8104
758 1 34.3425 12.6525 3.61499 5.09349 0.169008 26.7609 0.693372 -7.0386 2.64797 11.8104
138 1 37.9575 9.0375 8.32286e-07 -25.2494 -25.2296 -26.1892 4.30978 -5.6889 0.73999 11.8104
140 1 36.15 9.0375 1.8075 -38.6666 -32.8235 -67.0352 -2.37903 4.98582e-06 -3.69579e-06 11.8104
185 1 36.15 10.845 5.64391e-06 -15.3016 -22.2763 9.64031 8.42848 3.47538 -2.26282 11.8104
186 1 37.9575 12.6525 4.01701e-06 -17.5742 -24.0629 -2.49661 5.21171 -1.15353 0.190563 11.8104
187 1 37.9575 10.845 1.8075 -33.663 -24.1679 -53.9392 -1.7468 4.48167e-06 -2.37851e-06 11.8104
188 1 36.15 12.6525 1.8075 -52.566 -46.6521 -89.2804 -1.30259 5.10362e-06 -1.64531e-06 11.8104
714 1 37.9575 9.0375 3.615 -25.2624 -25.2426 -26.2077 4.30979 5.68889 -0.739985 11.8104
761 1 36.15 10.845 3.61499 -15.3146 -22.2893 9.6219 8.42848 -3.47539 2.26282 11.8104
762 1 37.9575 12.6525 3.615 -17.5872 -24.0759 -2.51503 5.21171 1.15353 -0.190561 11.8104
142 1 41.5725 9.0375 -1.09507e-07 -11.4806 -7.41239 -13.3687 1.1991 -7.8328 3.81648 11.8104
144 1 39.765 9.0375 1.8075 -6.53426 -4.844 -8.54027 -0.464139 8.16697e-07 -5.52338e-07 11.8104
189 1 39.765 10.845 5.66406e-07 -19.0856 -18.7115 -19.6183 3.07811 -5.77487 -0.465346 11.8104
190 1 41.5725 12.6525 2.73913e-07 -12.0492 -11.3719 -12.1096 1.74185 -4.55891 -0.889948 11.8104
191 1 41.5725 10.845 1.8075 -4.9274 -3.09526 -6.06241 -0.272941 6.09997e-07 -3.18735e-07 11.8104
192 1 39.765 12.6525 1.8075 -24.8778 -14.938 -36.8491 -0.982426 3.36885e-06 -1.19108e-06 11.8104
718 1 41.5725 9.0375 3.615 -11.4936 -7.42539 -13.3872 1.1991 7.8328 -3.81648 11.8104
765 1 39.765 10.845 3.615 -19.0986 -18.7245 -19.6367 3.07811 5.77487 0.465349 11.8104
766 1 41.5725 12.6525 3.615 -12.0622 -11.3849 -12.1281 1.74186 4.55891 0.889949 11.8104
193 1 3.31413e-08 14.46 3.50614e-08 -6.04451 -5.35843 -5.76597 0.671558 -2.54453 -0.739598 11.8104
194 1 1.8075 16.2675 -1.07953e-07 -1.64083 -1.87036 -1.63996 6.3341e-09 -0.638899 3.51864e-09 11.8104
195 1 1.8075 14.46 1.8075 -1.47632 -0.610175 -1.60513 -0.025452 1.80291e-07 -5.25995e-08 11.8104
196 1 -1.35559e-07 16.2675 1.8075 -7.00162 -2.54738 -8.72908 -4.4247e-09 9.39926e-07 -8.16397e-10 11.8104
197 1 3.615 14.46 -1.44264e-07 -1.61595 -0.61644 -1.48171 -5.61022e-08 7.68474e-08 -0.0254521 11.8104
200 1 3.615 16.2675 1.8075 -0.843097 -0.361558 -0.838536 2.74598e-09 6.88163e-09 -2.57366e-09 11.8104
769 1 3.31413e-08 14.46 3.615 -6.05751 -5.37144 -5.7844 0.671559 2.54453 0.739598 11.8104
770 1 1.8075 16.2675 3.615 -1.65384 -1.88337 -1.6584 -1.01251e-08 0.638898 6.18124e-09 11.8104
773 1 3.615 14.46 3.615 -1.62896 -0.629444 -1.50015 -6.02337e-08 -7.57896e-08 0.0254521 11.8104
198 1 5.4225 16.2675 -1.07953e-07 -1.6671 -1.88928 -1.65887 -4.06339e-09 0.638898 1.86215e-09 11.8104
199 1 5.4225 14.46 1.8075 -1.50258 -0.629089 -1.62404 0.0254521 -1.64921e-07 -3.77017e-08 11.8104
201 1 7.23 14.46 3.50615e-08 -6.09596 -5.39504 -5.80257 -0.671559 2.54453 -0.739599 11.8104
204 1 7.23 16.2675 1.8075 -7.05307 -2.58398 -8.76568 2.6626e-09 -9.49848e-07 -6.49808e-09 11.8104
774 1 5.4225 16.2675 3.615 -1.6801 -1.90228 -1.67731 -1.3174e-09 -0.638897 -5.10008e-09 11.8104
777 1 7.23 14.46 3.615 -6.10896 -5.40804 -5.821 -0.671559 -2.54453 0.739599 11.8104
202 1 9.0375 16.2675 9.1146e-07 -14.2259 -13.3423 -10.2414 -9.81105e-10 5.3088 -7.53199e-08 11.8104
203 1 9.0375 14.46 1.8075 -15.0341 -7.47133 -20.5343 0.356133 -2.03056e-06 -3.73169e-07 11.8104
205 1 10.845 14.46 2.26781e-06 -18.0819 -20.2713 -10.8501 -2.26392 5.31575 0.68515 11.8104
206 1 12.6525 16.2675 4.42366e-06 -14.8046 -18.7983 -7.83097 -1.29614e-07 3.98695 -7.79547e-07 11.8104
207 1 12.6525 14.46 1.8075 -41.0371 -32.8283 -66.153 0.556091 -4.58392e-06 -5.94328e-07 11.8104
208 1 10.845 16.2675 1.8075 -26.8301 -18.9222 -40.7441 5.14414e-08 -3.24861e-06 -1.04142e-08 11.8104
778 1 9.0375 16.2675 3.615 -14.2389 -13.3553 -10.2598 -5.65316e-09 -5.3088 7.83438e-08 11.8104
781 1 10.845 14.46 3.615 -18.0949 -20.2843 -10.8686 -2.26392 -5.31575 -0.68515 11.8104